;;
;; Generated by CHARMM-GUI FF-Converter
;;
;; Correspondance:
;; jul316@lehigh.edu or wonpil@lehigh.edu
;;
;; GROMACS topology file for CER3E
;;


[ moleculetype ]
; name	nrexcl
CER3E	     3

[ atoms ]
; nr	type	resnr	residu	atom	cgnr	charge	mass
     1        OHL     62    CER3E     O1      1    -0.690000    15.9994   ; qtot -0.690
     2        HOL     62    CER3E    HO1      2     0.300000     1.0080   ; qtot -0.390
     3       CTO2     62    CER3E    C1S      3     0.490000    12.0110   ; qtot  0.100
     4       HAL2     62    CER3E    H1S      4    -0.050000     1.0080   ; qtot  0.050
     5       HAL2     62    CER3E    H1T      5    -0.050000     1.0080   ; qtot  0.000
     6        NHL     62    CER3E     NF      6    -0.700000    14.0070   ; qtot -0.700
     7          H     62    CER3E    HNF      7     0.350000     1.0080   ; qtot -0.350
     8       CTL1     62    CER3E    C2S      8     0.300000    12.0110   ; qtot -0.050
     9       HAL1     62    CER3E    H2S      9     0.050000     1.0080   ; qtot  0.000
    10       CTO1     62    CER3E    C3S     10     0.500000    12.0110   ; qtot  0.500
    11       HAL1     62    CER3E    H3S     11    -0.110000     1.0080   ; qtot  0.390
    12        OHL     62    CER3E     O3     12    -0.690000    15.9994   ; qtot -0.300
    13        HOL     62    CER3E    HO3     13     0.300000     1.0080   ; qtot  0.000
    14       CEL3     62    CER3E    C4S     14    -0.150000    12.0110   ; qtot -0.150
    15       HEL1     62    CER3E    H4S     15     0.150000     1.0080   ; qtot  0.000
    16       CEL3     62    CER3E    C5S     16    -0.150000    12.0110   ; qtot -0.150
    17       HEL1     62    CER3E    H5S     17     0.150000     1.0080   ; qtot  0.000
    18       CTL2     62    CER3E    C6S     18    -0.180000    12.0110   ; qtot -0.180
    19       HAL2     62    CER3E    H6S     19     0.090000     1.0080   ; qtot -0.090
    20       HAL2     62    CER3E    H6T     20     0.090000     1.0080   ; qtot  0.000
    21       CTL2     62    CER3E    C7S     21    -0.180000    12.0110   ; qtot -0.180
    22       HAL2     62    CER3E    H7S     22     0.090000     1.0080   ; qtot -0.090
    23       HAL2     62    CER3E    H7T     23     0.090000     1.0080   ; qtot  0.000
    24       CEL3     62    CER3E    C8S     24    -0.150000    12.0110   ; qtot -0.150
    25       HEL1     62    CER3E    H8S     25     0.150000     1.0080   ; qtot  0.000
    26       CEL3     62    CER3E    C9S     26     0.000000    12.0110   ; qtot  0.000
    27       CTL2     62    CER3E   C10S     27    -0.180000    12.0110   ; qtot -0.180
    28       HAL2     62    CER3E   H10T     28     0.090000     1.0080   ; qtot -0.090
    29       HAL2     62    CER3E   H10S     29     0.090000     1.0080   ; qtot  0.000
    30       CTL3     62    CER3E   C19S     30    -0.270000    12.0110   ; qtot -0.270
    31       HAL3     62    CER3E   H19S     31     0.090000     1.0080   ; qtot -0.180
    32       HAL3     62    CER3E   H19T     32     0.090000     1.0080   ; qtot -0.090
    33       HAL3     62    CER3E   H19U     33     0.090000     1.0080   ; qtot  0.000
    34       CTL2     62    CER3E   C11S     34    -0.180000    12.0110   ; qtot -0.180
    35       HAL2     62    CER3E   H11S     35     0.090000     1.0080   ; qtot -0.090
    36       HAL2     62    CER3E   H11T     36     0.090000     1.0080   ; qtot  0.000
    37       CTL2     62    CER3E   C12S     37    -0.180000    12.0110   ; qtot -0.180
    38       HAL2     62    CER3E   H12S     38     0.090000     1.0080   ; qtot -0.090
    39       HAL2     62    CER3E   H12T     39     0.090000     1.0080   ; qtot  0.000
    40       CTL2     62    CER3E   C13S     40    -0.180000    12.0110   ; qtot -0.180
    41       HAL2     62    CER3E   H13S     41     0.090000     1.0080   ; qtot -0.090
    42       HAL2     62    CER3E   H13T     42     0.090000     1.0080   ; qtot  0.000
    43       CTL2     62    CER3E   C14S     43    -0.180000    12.0110   ; qtot -0.180
    44       HAL2     62    CER3E   H14S     44     0.090000     1.0080   ; qtot -0.090
    45       HAL2     62    CER3E   H14T     45     0.090000     1.0080   ; qtot  0.000
    46       CTL2     62    CER3E   C15S     46    -0.180000    12.0110   ; qtot -0.180
    47       HAL2     62    CER3E   H15S     47     0.090000     1.0080   ; qtot -0.090
    48       HAL2     62    CER3E   H15T     48     0.090000     1.0080   ; qtot  0.000
    49       CTL2     62    CER3E   C16S     49    -0.180000    12.0110   ; qtot -0.180
    50       HAL2     62    CER3E   H16S     50     0.090000     1.0080   ; qtot -0.090
    51       HAL2     62    CER3E   H16T     51     0.090000     1.0080   ; qtot  0.000
    52       CTL2     62    CER3E   C17S     52    -0.180000    12.0110   ; qtot -0.180
    53       HAL2     62    CER3E   H17S     53     0.090000     1.0080   ; qtot -0.090
    54       HAL2     62    CER3E   H17T     54     0.090000     1.0080   ; qtot  0.000
    55       CTL3     62    CER3E   C18S     55    -0.270000    12.0110   ; qtot -0.270
    56       HAL3     62    CER3E   H18S     56     0.090000     1.0080   ; qtot -0.180
    57       HAL3     62    CER3E   H18T     57     0.090000     1.0080   ; qtot -0.090
    58       HAL3     62    CER3E   H18U     58     0.090000     1.0080   ; qtot -0.000
    59          C     62    CER3E    C1F     59     0.550000    12.0110   ; qtot  0.550
    60          O     62    CER3E     OF     60    -0.600000    15.9994   ; qtot -0.050
    61       HAL1     62    CER3E    H2F     61     0.090000     1.0080   ; qtot  0.040
    62       CTO1     62    CER3E    C2F     62     0.190000    12.0110   ; qtot  0.230
    63        OHL     62    CER3E    O2F     63    -0.660000    15.9994   ; qtot -0.430
    64        HOL     62    CER3E   HO2F     64     0.430000     1.0080   ; qtot  0.000
    65       CEL3     62    CER3E    C3F     65    -0.150000    12.0110   ; qtot -0.150
    66       HEL1     62    CER3E    H3F     66     0.150000     1.0080   ; qtot  0.000
    67       CEL3     62    CER3E    C4F     67    -0.150000    12.0110   ; qtot -0.150
    68       HEL1     62    CER3E    H4F     68     0.150000     1.0080   ; qtot  0.000
    69       CTL2     62    CER3E    C5F     69    -0.180000    12.0110   ; qtot -0.180
    70       HAL2     62    CER3E    H5F     70     0.090000     1.0080   ; qtot -0.090
    71       HAL2     62    CER3E    H5G     71     0.090000     1.0080   ; qtot  0.000
    72       CTL2     62    CER3E    C6F     72    -0.180000    12.0110   ; qtot -0.180
    73       HAL2     62    CER3E    H6F     73     0.090000     1.0080   ; qtot -0.090
    74       HAL2     62    CER3E    H6G     74     0.090000     1.0080   ; qtot  0.000
    75       CTL2     62    CER3E    C7F     75    -0.180000    12.0110   ; qtot -0.180
    76       HAL2     62    CER3E    H7F     76     0.090000     1.0080   ; qtot -0.090
    77       HAL2     62    CER3E    H7G     77     0.090000     1.0080   ; qtot  0.000
    78       CTL2     62    CER3E    C8F     78    -0.180000    12.0110   ; qtot -0.180
    79       HAL2     62    CER3E    H8F     79     0.090000     1.0080   ; qtot -0.090
    80       HAL2     62    CER3E    H8G     80     0.090000     1.0080   ; qtot  0.000
    81       CTL2     62    CER3E    C9F     81    -0.180000    12.0110   ; qtot -0.180
    82       HAL2     62    CER3E    H9F     82     0.090000     1.0080   ; qtot -0.090
    83       HAL2     62    CER3E    H9G     83     0.090000     1.0080   ; qtot  0.000
    84       CTL2     62    CER3E   C10F     84    -0.180000    12.0110   ; qtot -0.180
    85       HAL2     62    CER3E   H10F     85     0.090000     1.0080   ; qtot -0.090
    86       HAL2     62    CER3E   H10G     86     0.090000     1.0080   ; qtot  0.000
    87       CTL2     62    CER3E   C11F     87    -0.180000    12.0110   ; qtot -0.180
    88       HAL2     62    CER3E   H11F     88     0.090000     1.0080   ; qtot -0.090
    89       HAL2     62    CER3E   H11G     89     0.090000     1.0080   ; qtot  0.000
    90       CTL2     62    CER3E   C12F     90    -0.180000    12.0110   ; qtot -0.180
    91       HAL2     62    CER3E   H12F     91     0.090000     1.0080   ; qtot -0.090
    92       HAL2     62    CER3E   H12G     92     0.090000     1.0080   ; qtot  0.000
    93       CTL2     62    CER3E   C13F     93    -0.180000    12.0110   ; qtot -0.180
    94       HAL2     62    CER3E   H13F     94     0.090000     1.0080   ; qtot -0.090
    95       HAL2     62    CER3E   H13G     95     0.090000     1.0080   ; qtot  0.000
    96       CTL2     62    CER3E   C14F     96    -0.180000    12.0110   ; qtot -0.180
    97       HAL2     62    CER3E   H14F     97     0.090000     1.0080   ; qtot -0.090
    98       HAL2     62    CER3E   H14G     98     0.090000     1.0080   ; qtot  0.000
    99       CTL2     62    CER3E   C15F     99    -0.180000    12.0110   ; qtot -0.180
   100       HAL2     62    CER3E   H15F    100     0.090000     1.0080   ; qtot -0.090
   101       HAL2     62    CER3E   H15G    101     0.090000     1.0080   ; qtot  0.000
   102       CTL2     62    CER3E   C16F    102    -0.180000    12.0110   ; qtot -0.180
   103       HAL2     62    CER3E   H16F    103     0.090000     1.0080   ; qtot -0.090
   104       HAL2     62    CER3E   H16G    104     0.090000     1.0080   ; qtot  0.000
   105       CTL2     62    CER3E   C17F    105    -0.180000    12.0110   ; qtot -0.180
   106       HAL2     62    CER3E   H17F    106     0.090000     1.0080   ; qtot -0.090
   107       HAL2     62    CER3E   H17G    107     0.090000     1.0080   ; qtot  0.000
   108       CTL3     62    CER3E   C18F    108    -0.270000    12.0110   ; qtot -0.270
   109       HAL3     62    CER3E   H18F    109     0.090000     1.0080   ; qtot -0.180
   110       HAL3     62    CER3E   H18G    110     0.090000     1.0080   ; qtot -0.090
   111       HAL3     62    CER3E   H18H    111     0.090000     1.0080   ; qtot  0.000

[ bonds ]
; ai	aj	funct	b0	Kb
    1     2     1
    3     1     1
    3     4     1
    3     5     1
    8     3     1
    6     7     1
    8     6     1
    6    59     1
    8     9     1
   10     8     1
   10    11     1
   10    12     1
   14    10     1
   12    13     1
   14    15     1
   14    16     1
   16    17     1
   18    16     1
   18    19     1
   18    20     1
   21    18     1
   21    22     1
   21    23     1
   24    21     1
   24    25     1
   26    24     1
   27    26     1
   26    30     1
   27    28     1
   27    29     1
   34    27     1
   30    31     1
   30    32     1
   30    33     1
   34    35     1
   34    36     1
   37    34     1
   37    38     1
   37    39     1
   40    37     1
   40    41     1
   40    42     1
   43    40     1
   43    44     1
   43    45     1
   46    43     1
   46    47     1
   46    48     1
   49    46     1
   49    50     1
   49    51     1
   52    49     1
   52    53     1
   52    54     1
   55    52     1
   55    56     1
   55    57     1
   55    58     1
   59    60     1
   59    62     1
   62    61     1
   62    63     1
   62    65     1
   63    64     1
   65    66     1
   65    67     1
   67    68     1
   67    69     1
   69    70     1
   69    71     1
   69    72     1
   72    73     1
   72    74     1
   72    75     1
   75    76     1
   75    77     1
   75    78     1
   78    79     1
   78    80     1
   78    81     1
   81    82     1
   81    83     1
   81    84     1
   84    85     1
   84    86     1
   84    87     1
   87    88     1
   87    89     1
   87    90     1
   90    91     1
   90    92     1
   90    93     1
   93    94     1
   93    95     1
   93    96     1
   96    97     1
   96    98     1
   96    99     1
   99   100     1
   99   101     1
   99   102     1
  102   103     1
  102   104     1
  102   105     1
  105   106     1
  105   107     1
  105   108     1
  108   109     1
  108   110     1
  108   111     1

[ pairs ]
; ai	aj	funct	c6	c12 or
; ai	aj	funct	fudgeQQ	q1	q2	c6	c12
    1     6     1
    1     9     1
    1    10     1
    2     4     1
    2     5     1
    2     8     1
    3     7     1
    3    11     1
    3    12     1
    3    14     1
    3    59     1
    4     6     1
    4     9     1
    4    10     1
    5     6     1
    5     9     1
    5    10     1
    6    11     1
    6    12     1
    6    14     1
    6    61     1
    6    63     1
    6    65     1
    7     9     1
    7    10     1
    7    60     1
    7    62     1
    8    13     1
    8    15     1
    8    16     1
    8    60     1
    8    62     1
    9    11     1
    9    12     1
    9    14     1
    9    59     1
   10    17     1
   10    18     1
   10    59     1
   11    13     1
   11    15     1
   11    16     1
   12    15     1
   12    16     1
   13    14     1
   14    19     1
   14    20     1
   14    21     1
   15    17     1
   15    18     1
   16    22     1
   16    23     1
   16    24     1
   17    19     1
   17    20     1
   17    21     1
   18    25     1
   18    26     1
   19    22     1
   19    23     1
   19    24     1
   20    22     1
   20    23     1
   20    24     1
   21    27     1
   21    30     1
   22    25     1
   22    26     1
   23    25     1
   23    26     1
   24    28     1
   24    29     1
   24    31     1
   24    32     1
   24    33     1
   24    34     1
   25    27     1
   25    30     1
   26    35     1
   26    36     1
   26    37     1
   27    31     1
   27    32     1
   27    33     1
   27    38     1
   27    39     1
   27    40     1
   28    30     1
   28    35     1
   28    36     1
   28    37     1
   29    30     1
   29    35     1
   29    36     1
   29    37     1
   30    34     1
   34    41     1
   34    42     1
   34    43     1
   35    38     1
   35    39     1
   35    40     1
   36    38     1
   36    39     1
   36    40     1
   37    44     1
   37    45     1
   37    46     1
   38    41     1
   38    42     1
   38    43     1
   39    41     1
   39    42     1
   39    43     1
   40    47     1
   40    48     1
   40    49     1
   41    44     1
   41    45     1
   41    46     1
   42    44     1
   42    45     1
   42    46     1
   43    50     1
   43    51     1
   43    52     1
   44    47     1
   44    48     1
   44    49     1
   45    47     1
   45    48     1
   45    49     1
   46    53     1
   46    54     1
   46    55     1
   47    50     1
   47    51     1
   47    52     1
   48    50     1
   48    51     1
   48    52     1
   49    56     1
   49    57     1
   49    58     1
   50    53     1
   50    54     1
   50    55     1
   51    53     1
   51    54     1
   51    55     1
   53    56     1
   53    57     1
   53    58     1
   54    56     1
   54    57     1
   54    58     1
   59    64     1
   59    66     1
   59    67     1
   60    61     1
   60    63     1
   60    65     1
   61    64     1
   61    66     1
   61    67     1
   62    68     1
   62    69     1
   63    66     1
   63    67     1
   64    65     1
   65    70     1
   65    71     1
   65    72     1
   66    68     1
   66    69     1
   67    73     1
   67    74     1
   67    75     1
   68    70     1
   68    71     1
   68    72     1
   69    76     1
   69    77     1
   69    78     1
   70    73     1
   70    74     1
   70    75     1
   71    73     1
   71    74     1
   71    75     1
   72    79     1
   72    80     1
   72    81     1
   73    76     1
   73    77     1
   73    78     1
   74    76     1
   74    77     1
   74    78     1
   75    82     1
   75    83     1
   75    84     1
   76    79     1
   76    80     1
   76    81     1
   77    79     1
   77    80     1
   77    81     1
   78    85     1
   78    86     1
   78    87     1
   79    82     1
   79    83     1
   79    84     1
   80    82     1
   80    83     1
   80    84     1
   81    88     1
   81    89     1
   81    90     1
   82    85     1
   82    86     1
   82    87     1
   83    85     1
   83    86     1
   83    87     1
   84    91     1
   84    92     1
   84    93     1
   85    88     1
   85    89     1
   85    90     1
   86    88     1
   86    89     1
   86    90     1
   87    94     1
   87    95     1
   87    96     1
   88    91     1
   88    92     1
   88    93     1
   89    91     1
   89    92     1
   89    93     1
   90    97     1
   90    98     1
   90    99     1
   91    94     1
   91    95     1
   91    96     1
   92    94     1
   92    95     1
   92    96     1
   93   100     1
   93   101     1
   93   102     1
   94    97     1
   94    98     1
   94    99     1
   95    97     1
   95    98     1
   95    99     1
   96   103     1
   96   104     1
   96   105     1
   97   100     1
   97   101     1
   97   102     1
   98   100     1
   98   101     1
   98   102     1
   99   106     1
   99   107     1
   99   108     1
  100   103     1
  100   104     1
  100   105     1
  101   103     1
  101   104     1
  101   105     1
  102   109     1
  102   110     1
  102   111     1
  103   106     1
  103   107     1
  103   108     1
  104   106     1
  104   107     1
  104   108     1
  106   109     1
  106   110     1
  106   111     1
  107   109     1
  107   110     1
  107   111     1

[ angles ] 
; ai	aj	ak	funct	th0	cth	S0	Kub
    2     1     3     5
    1     3     4     5
    1     3     5     5
    1     3     8     5
    4     3     5     5
    4     3     8     5
    5     3     8     5
    7     6     8     5
    7     6    59     5
    8     6    59     5
    3     8     6     5
    3     8     9     5
    3     8    10     5
    6     8     9     5
    6     8    10     5
    9     8    10     5
    8    10    11     5
    8    10    12     5
    8    10    14     5
   11    10    12     5
   11    10    14     5
   12    10    14     5
   10    12    13     5
   10    14    15     5
   10    14    16     5
   15    14    16     5
   14    16    17     5
   14    16    18     5
   17    16    18     5
   16    18    19     5
   16    18    20     5
   16    18    21     5
   19    18    20     5
   19    18    21     5
   20    18    21     5
   18    21    22     5
   18    21    23     5
   18    21    24     5
   22    21    23     5
   22    21    24     5
   23    21    24     5
   21    24    25     5
   21    24    26     5
   25    24    26     5
   24    26    27     5
   24    26    30     5
   27    26    30     5
   26    27    28     5
   26    27    29     5
   26    27    34     5
   28    27    29     5
   28    27    34     5
   29    27    34     5
   26    30    31     5
   26    30    32     5
   26    30    33     5
   31    30    32     5
   31    30    33     5
   32    30    33     5
   27    34    35     5
   27    34    36     5
   27    34    37     5
   35    34    36     5
   35    34    37     5
   36    34    37     5
   34    37    38     5
   34    37    39     5
   34    37    40     5
   38    37    39     5
   38    37    40     5
   39    37    40     5
   37    40    41     5
   37    40    42     5
   37    40    43     5
   41    40    42     5
   41    40    43     5
   42    40    43     5
   40    43    44     5
   40    43    45     5
   40    43    46     5
   44    43    45     5
   44    43    46     5
   45    43    46     5
   43    46    47     5
   43    46    48     5
   43    46    49     5
   47    46    48     5
   47    46    49     5
   48    46    49     5
   46    49    50     5
   46    49    51     5
   46    49    52     5
   50    49    51     5
   50    49    52     5
   51    49    52     5
   49    52    53     5
   49    52    54     5
   49    52    55     5
   53    52    54     5
   53    52    55     5
   54    52    55     5
   52    55    56     5
   52    55    57     5
   52    55    58     5
   56    55    57     5
   56    55    58     5
   57    55    58     5
    6    59    60     5
    6    59    62     5
   60    59    62     5
   59    62    61     5
   59    62    63     5
   59    62    65     5
   61    62    63     5
   61    62    65     5
   63    62    65     5
   62    63    64     5
   62    65    66     5
   62    65    67     5
   66    65    67     5
   65    67    68     5
   65    67    69     5
   68    67    69     5
   67    69    70     5
   67    69    71     5
   67    69    72     5
   70    69    71     5
   70    69    72     5
   71    69    72     5
   69    72    73     5
   69    72    74     5
   69    72    75     5
   73    72    74     5
   73    72    75     5
   74    72    75     5
   72    75    76     5
   72    75    77     5
   72    75    78     5
   76    75    77     5
   76    75    78     5
   77    75    78     5
   75    78    79     5
   75    78    80     5
   75    78    81     5
   79    78    80     5
   79    78    81     5
   80    78    81     5
   78    81    82     5
   78    81    83     5
   78    81    84     5
   82    81    83     5
   82    81    84     5
   83    81    84     5
   81    84    85     5
   81    84    86     5
   81    84    87     5
   85    84    86     5
   85    84    87     5
   86    84    87     5
   84    87    88     5
   84    87    89     5
   84    87    90     5
   88    87    89     5
   88    87    90     5
   89    87    90     5
   87    90    91     5
   87    90    92     5
   87    90    93     5
   91    90    92     5
   91    90    93     5
   92    90    93     5
   90    93    94     5
   90    93    95     5
   90    93    96     5
   94    93    95     5
   94    93    96     5
   95    93    96     5
   93    96    97     5
   93    96    98     5
   93    96    99     5
   97    96    98     5
   97    96    99     5
   98    96    99     5
   96    99   100     5
   96    99   101     5
   96    99   102     5
  100    99   101     5
  100    99   102     5
  101    99   102     5
   99   102   103     5
   99   102   104     5
   99   102   105     5
  103   102   104     5
  103   102   105     5
  104   102   105     5
  102   105   106     5
  102   105   107     5
  102   105   108     5
  106   105   107     5
  106   105   108     5
  107   105   108     5
  105   108   109     5
  105   108   110     5
  105   108   111     5
  109   108   110     5
  109   108   111     5
  110   108   111     5

[ dihedrals ]
; ai	aj	ak	al	funct	phi0	cp	mult
    2     1     3     4     9
    2     1     3     5     9
    2     1     3     8     9
    1     3     8     6     9
    1     3     8     9     9
    1     3     8    10     9
    4     3     8     6     9
    4     3     8     9     9
    4     3     8    10     9
    5     3     8     6     9
    5     3     8     9     9
    5     3     8    10     9
    7     6     8     9     9
    7     6     8    10     9
    7     6    59    60     9
    7     6    59    62     9
    8     6    59    60     9
    8     6    59    62     9
    3     8     6     7     9
    3     8     6    59     9
    9     8     6    59     9
   10     8     6    59     9
    3     8    10    11     9
    3     8    10    12     9
    3     8    10    14     9
    6     8    10    11     9
    6     8    10    12     9
    6     8    10    14     9
    9     8    10    11     9
    9     8    10    12     9
    9     8    10    14     9
    8    10    12    13     9
   11    10    12    13     9
    8    10    14    15     9
    8    10    14    16     9
   11    10    14    15     9
   11    10    14    16     9
   12    10    14    15     9
   12    10    14    16     9
   13    12    10    14     9
   10    14    16    17     9
   10    14    16    18     9
   15    14    16    17     9
   15    14    16    18     9
   14    16    18    19     9
   14    16    18    20     9
   14    16    18    21     9
   17    16    18    19     9
   17    16    18    20     9
   17    16    18    21     9
   16    18    21    22     9
   16    18    21    23     9
   16    18    21    24     9
   19    18    21    22     9
   19    18    21    23     9
   19    18    21    24     9
   20    18    21    22     9
   20    18    21    23     9
   20    18    21    24     9
   18    21    24    25     9
   18    21    24    26     9
   22    21    24    25     9
   22    21    24    26     9
   23    21    24    25     9
   23    21    24    26     9
   21    24    26    27     9
   21    24    26    30     9
   25    24    26    27     9
   25    24    26    30     9
   24    26    27    28     9
   24    26    27    29     9
   24    26    27    34     9
   30    26    27    34     9
   24    26    30    31     9
   24    26    30    32     9
   24    26    30    33     9
   27    26    30    31     9
   27    26    30    32     9
   27    26    30    33     9
   28    27    26    30     9
   29    27    26    30     9
   26    27    34    35     9
   26    27    34    36     9
   26    27    34    37     9
   28    27    34    35     9
   28    27    34    36     9
   28    27    34    37     9
   29    27    34    35     9
   29    27    34    36     9
   29    27    34    37     9
   27    34    37    38     9
   27    34    37    39     9
   27    34    37    40     9
   35    34    37    38     9
   35    34    37    39     9
   35    34    37    40     9
   36    34    37    38     9
   36    34    37    39     9
   36    34    37    40     9
   34    37    40    41     9
   34    37    40    42     9
   34    37    40    43     9
   38    37    40    41     9
   38    37    40    42     9
   38    37    40    43     9
   39    37    40    41     9
   39    37    40    42     9
   39    37    40    43     9
   37    40    43    44     9
   37    40    43    45     9
   37    40    43    46     9
   41    40    43    44     9
   41    40    43    45     9
   41    40    43    46     9
   42    40    43    44     9
   42    40    43    45     9
   42    40    43    46     9
   40    43    46    47     9
   40    43    46    48     9
   40    43    46    49     9
   44    43    46    47     9
   44    43    46    48     9
   44    43    46    49     9
   45    43    46    47     9
   45    43    46    48     9
   45    43    46    49     9
   43    46    49    50     9
   43    46    49    51     9
   43    46    49    52     9
   47    46    49    50     9
   47    46    49    51     9
   47    46    49    52     9
   48    46    49    50     9
   48    46    49    51     9
   48    46    49    52     9
   46    49    52    53     9
   46    49    52    54     9
   46    49    52    55     9
   50    49    52    53     9
   50    49    52    54     9
   50    49    52    55     9
   51    49    52    53     9
   51    49    52    54     9
   51    49    52    55     9
   49    52    55    56     9
   49    52    55    57     9
   49    52    55    58     9
   53    52    55    56     9
   53    52    55    57     9
   53    52    55    58     9
   54    52    55    56     9
   54    52    55    57     9
   54    52    55    58     9
    6    59    62    61     9
    6    59    62    63     9
    6    59    62    65     9
   60    59    62    61     9
   60    59    62    63     9
   60    59    62    65     9
   59    62    63    64     9
   61    62    63    64     9
   59    62    65    66     9
   59    62    65    67     9
   61    62    65    66     9
   61    62    65    67     9
   63    62    65    66     9
   63    62    65    67     9
   64    63    62    65     9
   62    65    67    68     9
   62    65    67    69     9
   66    65    67    68     9
   66    65    67    69     9
   65    67    69    70     9
   65    67    69    71     9
   65    67    69    72     9
   68    67    69    70     9
   68    67    69    71     9
   68    67    69    72     9
   67    69    72    73     9
   67    69    72    74     9
   67    69    72    75     9
   70    69    72    73     9
   70    69    72    74     9
   70    69    72    75     9
   71    69    72    73     9
   71    69    72    74     9
   71    69    72    75     9
   69    72    75    76     9
   69    72    75    77     9
   69    72    75    78     9
   73    72    75    76     9
   73    72    75    77     9
   73    72    75    78     9
   74    72    75    76     9
   74    72    75    77     9
   74    72    75    78     9
   72    75    78    79     9
   72    75    78    80     9
   72    75    78    81     9
   76    75    78    79     9
   76    75    78    80     9
   76    75    78    81     9
   77    75    78    79     9
   77    75    78    80     9
   77    75    78    81     9
   75    78    81    82     9
   75    78    81    83     9
   75    78    81    84     9
   79    78    81    82     9
   79    78    81    83     9
   79    78    81    84     9
   80    78    81    82     9
   80    78    81    83     9
   80    78    81    84     9
   78    81    84    85     9
   78    81    84    86     9
   78    81    84    87     9
   82    81    84    85     9
   82    81    84    86     9
   82    81    84    87     9
   83    81    84    85     9
   83    81    84    86     9
   83    81    84    87     9
   81    84    87    88     9
   81    84    87    89     9
   81    84    87    90     9
   85    84    87    88     9
   85    84    87    89     9
   85    84    87    90     9
   86    84    87    88     9
   86    84    87    89     9
   86    84    87    90     9
   84    87    90    91     9
   84    87    90    92     9
   84    87    90    93     9
   88    87    90    91     9
   88    87    90    92     9
   88    87    90    93     9
   89    87    90    91     9
   89    87    90    92     9
   89    87    90    93     9
   87    90    93    94     9
   87    90    93    95     9
   87    90    93    96     9
   91    90    93    94     9
   91    90    93    95     9
   91    90    93    96     9
   92    90    93    94     9
   92    90    93    95     9
   92    90    93    96     9
   90    93    96    97     9
   90    93    96    98     9
   90    93    96    99     9
   94    93    96    97     9
   94    93    96    98     9
   94    93    96    99     9
   95    93    96    97     9
   95    93    96    98     9
   95    93    96    99     9
   93    96    99   100     9
   93    96    99   101     9
   93    96    99   102     9
   97    96    99   100     9
   97    96    99   101     9
   97    96    99   102     9
   98    96    99   100     9
   98    96    99   101     9
   98    96    99   102     9
   96    99   102   103     9
   96    99   102   104     9
   96    99   102   105     9
  100    99   102   103     9
  100    99   102   104     9
  100    99   102   105     9
  101    99   102   103     9
  101    99   102   104     9
  101    99   102   105     9
   99   102   105   106     9
   99   102   105   107     9
   99   102   105   108     9
  103   102   105   106     9
  103   102   105   107     9
  103   102   105   108     9
  104   102   105   106     9
  104   102   105   107     9
  104   102   105   108     9
  102   105   108   109     9
  102   105   108   110     9
  102   105   108   111     9
  106   105   108   109     9
  106   105   108   110     9
  106   105   108   111     9
  107   105   108   109     9
  107   105   108   110     9
  107   105   108   111     9

[ dihedrals ]
; ai	aj	ak	al	funct	q0	cq
    6    59     8     7     2
   59    62     6    60     2

#ifdef POSRES
[ position_restraints ]
    6     1     0.0             0.0            POSRES_FC_LIPID
#endif

#ifdef DIHRES
[ dihedral_restraints ]
   10     3     8     6     1    120.0      2.5       DIHRES_FC
   14    12    10     8     1   -120.0      2.5       DIHRES_FC
   10    14    16    18     1    180.0      0.0       DIHRES_FC
   21    24    26    27     1    180.0      0.0       DIHRES_FC
   59    63    62    65     1    120.0      2.5       DIHRES_FC
   62    65    67    69     1    180.0      0.0       DIHRES_FC
#endif
