;;
;; Generated by CHARMM-GUI FF-Converter
;;
;; Correspondance:
;; jul316@lehigh.edu or wonpil@lehigh.edu
;;
;; GROMACS topology file for DDOPC
;;


[ moleculetype ]
; name	nrexcl
DDOPC	     3

[ atoms ]
; nr	type	resnr	residu	atom	cgnr	charge	mass
     1        NTL    106    DDOPC      N      1    -0.600000    14.0070   ; qtot -0.600
     2       CTL5    106    DDOPC    C13      2    -0.350000    12.0110   ; qtot -0.950
     3         HL    106    DDOPC   H13A      3     0.250000     1.0080   ; qtot -0.700
     4         HL    106    DDOPC   H13B      4     0.250000     1.0080   ; qtot -0.450
     5         HL    106    DDOPC   H13C      5     0.250000     1.0080   ; qtot -0.200
     6       CTL5    106    DDOPC    C14      6    -0.350000    12.0110   ; qtot -0.550
     7         HL    106    DDOPC   H14A      7     0.250000     1.0080   ; qtot -0.300
     8         HL    106    DDOPC   H14B      8     0.250000     1.0080   ; qtot -0.050
     9         HL    106    DDOPC   H14C      9     0.250000     1.0080   ; qtot  0.200
    10       CTL5    106    DDOPC    C15     10    -0.350000    12.0110   ; qtot -0.150
    11         HL    106    DDOPC   H15A     11     0.250000     1.0080   ; qtot  0.100
    12         HL    106    DDOPC   H15B     12     0.250000     1.0080   ; qtot  0.350
    13         HL    106    DDOPC   H15C     13     0.250000     1.0080   ; qtot  0.600
    14       CTL2    106    DDOPC    C12     14    -0.100000    12.0110   ; qtot  0.500
    15         HL    106    DDOPC   H12A     15     0.250000     1.0080   ; qtot  0.750
    16         HL    106    DDOPC   H12B     16     0.250000     1.0080   ; qtot  1.000
    17       CTL2    106    DDOPC    C11     17    -0.080000    12.0110   ; qtot  0.920
    18       HAL2    106    DDOPC   H11A     18     0.090000     1.0080   ; qtot  1.010
    19       HAL2    106    DDOPC   H11B     19     0.090000     1.0080   ; qtot  1.100
    20         PL    106    DDOPC      P     20     1.500000    30.9740   ; qtot  2.600
    21        O2L    106    DDOPC    O13     21    -0.780000    15.9994   ; qtot  1.820
    22        O2L    106    DDOPC    O14     22    -0.780000    15.9994   ; qtot  1.040
    23       OSLP    106    DDOPC    O12     23    -0.570000    15.9994   ; qtot  0.470
    24       OSLP    106    DDOPC    O11     24    -0.570000    15.9994   ; qtot -0.100
    25       CTL2    106    DDOPC     C1     25    -0.080000    12.0110   ; qtot -0.180
    26       HAL2    106    DDOPC     HA     26     0.090000     1.0080   ; qtot -0.090
    27       HAL2    106    DDOPC     HB     27     0.090000     1.0080   ; qtot  0.000
    28       CTL1    106    DDOPC     C2     28     0.170000    12.0110   ; qtot  0.170
    29       HAL1    106    DDOPC     HS     29     0.090000     1.0080   ; qtot  0.260
    30        OSL    106    DDOPC    O21     30    -0.490000    15.9994   ; qtot -0.230
    31         CL    106    DDOPC    C21     31     0.900000    12.0110   ; qtot  0.670
    32        OBL    106    DDOPC    O22     32    -0.630000    15.9994   ; qtot  0.040
    33       CTL2    106    DDOPC    C22     33    -0.220000    12.0110   ; qtot -0.180
    34       HAL2    106    DDOPC    H2R     34     0.090000     1.0080   ; qtot -0.090
    35       HAL2    106    DDOPC    H2S     35     0.090000     1.0080   ; qtot  0.000
    36       CTL2    106    DDOPC     C3     36     0.080000    12.0110   ; qtot  0.080
    37       HAL2    106    DDOPC     HX     37     0.090000     1.0080   ; qtot  0.170
    38       HAL2    106    DDOPC     HY     38     0.090000     1.0080   ; qtot  0.260
    39        OSL    106    DDOPC    O31     39    -0.490000    15.9994   ; qtot -0.230
    40         CL    106    DDOPC    C31     40     0.900000    12.0110   ; qtot  0.670
    41        OBL    106    DDOPC    O32     41    -0.630000    15.9994   ; qtot  0.040
    42       CTL2    106    DDOPC    C32     42    -0.220000    12.0110   ; qtot -0.180
    43       HAL2    106    DDOPC    H2X     43     0.090000     1.0080   ; qtot -0.090
    44       HAL2    106    DDOPC    H2Y     44     0.090000     1.0080   ; qtot  0.000
    45       CTL2    106    DDOPC    C23     45    -0.180000    12.0110   ; qtot -0.180
    46       HAL2    106    DDOPC    H3R     46     0.090000     1.0080   ; qtot -0.090
    47       HAL2    106    DDOPC    H3S     47     0.090000     1.0080   ; qtot  0.000
    48       CEL1    106    DDOPC    C24     48    -0.150000    12.0110   ; qtot -0.150
    49       HEL1    106    DDOPC    H4R     49     0.150000     1.0080   ; qtot  0.000
    50       CEL1    106    DDOPC    C25     50    -0.150000    12.0110   ; qtot -0.150
    51       HEL1    106    DDOPC    H5R     51     0.150000     1.0080   ; qtot  0.000
    52       CTL2    106    DDOPC    C26     52    -0.180000    12.0110   ; qtot -0.180
    53       HAL2    106    DDOPC    H6R     53     0.090000     1.0080   ; qtot -0.090
    54       HAL2    106    DDOPC    H6S     54     0.090000     1.0080   ; qtot  0.000
    55       CEL1    106    DDOPC    C27     55    -0.150000    12.0110   ; qtot -0.150
    56       HEL1    106    DDOPC    H7R     56     0.150000     1.0080   ; qtot  0.000
    57       CEL1    106    DDOPC    C28     57    -0.150000    12.0110   ; qtot -0.150
    58       HEL1    106    DDOPC    H8R     58     0.150000     1.0080   ; qtot  0.000
    59       CTL2    106    DDOPC    C29     59    -0.180000    12.0110   ; qtot -0.180
    60       HAL2    106    DDOPC    H9R     60     0.090000     1.0080   ; qtot -0.090
    61       HAL2    106    DDOPC    H9S     61     0.090000     1.0080   ; qtot  0.000
    62       CEL1    106    DDOPC   C210     62    -0.150000    12.0110   ; qtot -0.150
    63       HEL1    106    DDOPC   H10R     63     0.150000     1.0080   ; qtot  0.000
    64       CEL1    106    DDOPC   C211     64    -0.150000    12.0110   ; qtot -0.150
    65       HEL1    106    DDOPC   H11R     65     0.150000     1.0080   ; qtot  0.000
    66       CTL2    106    DDOPC   C212     66    -0.180000    12.0110   ; qtot -0.180
    67       HAL2    106    DDOPC   H12R     67     0.090000     1.0080   ; qtot -0.090
    68       HAL2    106    DDOPC   H12S     68     0.090000     1.0080   ; qtot  0.000
    69       CEL1    106    DDOPC   C213     69    -0.150000    12.0110   ; qtot -0.150
    70       HEL1    106    DDOPC   H13R     70     0.150000     1.0080   ; qtot  0.000
    71       CEL1    106    DDOPC   C214     71    -0.150000    12.0110   ; qtot -0.150
    72       HEL1    106    DDOPC   H14R     72     0.150000     1.0080   ; qtot  0.000
    73       CTL2    106    DDOPC   C215     73    -0.180000    12.0110   ; qtot -0.180
    74       HAL2    106    DDOPC   H15R     74     0.090000     1.0080   ; qtot -0.090
    75       HAL2    106    DDOPC   H15S     75     0.090000     1.0080   ; qtot  0.000
    76       CEL1    106    DDOPC   C216     76    -0.150000    12.0110   ; qtot -0.150
    77       HEL1    106    DDOPC   H16R     77     0.150000     1.0080   ; qtot  0.000
    78       CEL1    106    DDOPC   C217     78    -0.150000    12.0110   ; qtot -0.150
    79       HEL1    106    DDOPC   H17R     79     0.150000     1.0080   ; qtot  0.000
    80       CTL2    106    DDOPC   C218     80    -0.180000    12.0110   ; qtot -0.180
    81       HAL2    106    DDOPC   H18R     81     0.090000     1.0080   ; qtot -0.090
    82       HAL2    106    DDOPC   H18S     82     0.090000     1.0080   ; qtot  0.000
    83       CEL1    106    DDOPC   C219     83    -0.150000    12.0110   ; qtot -0.150
    84       HEL1    106    DDOPC   H19R     84     0.150000     1.0080   ; qtot  0.000
    85       CEL1    106    DDOPC   C220     85    -0.150000    12.0110   ; qtot -0.150
    86       HEL1    106    DDOPC   H20R     86     0.150000     1.0080   ; qtot  0.000
    87       CTL2    106    DDOPC   C221     87    -0.180000    12.0110   ; qtot -0.180
    88       HAL2    106    DDOPC   H21R     88     0.090000     1.0080   ; qtot -0.090
    89       HAL2    106    DDOPC   H21S     89     0.090000     1.0080   ; qtot  0.000
    90       CTL3    106    DDOPC   C222     90    -0.270000    12.0110   ; qtot -0.270
    91       HAL3    106    DDOPC   H22R     91     0.090000     1.0080   ; qtot -0.180
    92       HAL3    106    DDOPC   H22S     92     0.090000     1.0080   ; qtot -0.090
    93       HAL3    106    DDOPC   H22T     93     0.090000     1.0080   ; qtot  0.000
    94       CTL2    106    DDOPC    C33     94    -0.180000    12.0110   ; qtot -0.180
    95       HAL2    106    DDOPC    H3X     95     0.090000     1.0080   ; qtot -0.090
    96       HAL2    106    DDOPC    H3Y     96     0.090000     1.0080   ; qtot  0.000
    97       CEL1    106    DDOPC    C34     97    -0.150000    12.0110   ; qtot -0.150
    98       HEL1    106    DDOPC    H4X     98     0.150000     1.0080   ; qtot  0.000
    99       CEL1    106    DDOPC    C35     99    -0.150000    12.0110   ; qtot -0.150
   100       HEL1    106    DDOPC    H5X    100     0.150000     1.0080   ; qtot  0.000
   101       CTL2    106    DDOPC    C36    101    -0.180000    12.0110   ; qtot -0.180
   102       HAL2    106    DDOPC    H6X    102     0.090000     1.0080   ; qtot -0.090
   103       HAL2    106    DDOPC    H6Y    103     0.090000     1.0080   ; qtot  0.000
   104       CEL1    106    DDOPC    C37    104    -0.150000    12.0110   ; qtot -0.150
   105       HEL1    106    DDOPC    H7X    105     0.150000     1.0080   ; qtot  0.000
   106       CEL1    106    DDOPC    C38    106    -0.150000    12.0110   ; qtot -0.150
   107       HEL1    106    DDOPC    H8X    107     0.150000     1.0080   ; qtot  0.000
   108       CTL2    106    DDOPC    C39    108    -0.180000    12.0110   ; qtot -0.180
   109       HAL2    106    DDOPC    H9X    109     0.090000     1.0080   ; qtot -0.090
   110       HAL2    106    DDOPC    H9Y    110     0.090000     1.0080   ; qtot  0.000
   111       CEL1    106    DDOPC   C310    111    -0.150000    12.0110   ; qtot -0.150
   112       HEL1    106    DDOPC   H10X    112     0.150000     1.0080   ; qtot  0.000
   113       CEL1    106    DDOPC   C311    113    -0.150000    12.0110   ; qtot -0.150
   114       HEL1    106    DDOPC   H11X    114     0.150000     1.0080   ; qtot  0.000
   115       CTL2    106    DDOPC   C312    115    -0.180000    12.0110   ; qtot -0.180
   116       HAL2    106    DDOPC   H12X    116     0.090000     1.0080   ; qtot -0.090
   117       HAL2    106    DDOPC   H12Y    117     0.090000     1.0080   ; qtot  0.000
   118       CEL1    106    DDOPC   C313    118    -0.150000    12.0110   ; qtot -0.150
   119       HEL1    106    DDOPC   H13X    119     0.150000     1.0080   ; qtot  0.000
   120       CEL1    106    DDOPC   C314    120    -0.150000    12.0110   ; qtot -0.150
   121       HEL1    106    DDOPC   H14X    121     0.150000     1.0080   ; qtot  0.000
   122       CTL2    106    DDOPC   C315    122    -0.180000    12.0110   ; qtot -0.180
   123       HAL2    106    DDOPC   H15X    123     0.090000     1.0080   ; qtot -0.090
   124       HAL2    106    DDOPC   H15Y    124     0.090000     1.0080   ; qtot  0.000
   125       CEL1    106    DDOPC   C316    125    -0.150000    12.0110   ; qtot -0.150
   126       HEL1    106    DDOPC   H16X    126     0.150000     1.0080   ; qtot  0.000
   127       CEL1    106    DDOPC   C317    127    -0.150000    12.0110   ; qtot -0.150
   128       HEL1    106    DDOPC   H17X    128     0.150000     1.0080   ; qtot  0.000
   129       CTL2    106    DDOPC   C318    129    -0.180000    12.0110   ; qtot -0.180
   130       HAL2    106    DDOPC   H18X    130     0.090000     1.0080   ; qtot -0.090
   131       HAL2    106    DDOPC   H18Y    131     0.090000     1.0080   ; qtot  0.000
   132       CEL1    106    DDOPC   C319    132    -0.150000    12.0110   ; qtot -0.150
   133       HEL1    106    DDOPC   H19X    133     0.150000     1.0080   ; qtot  0.000
   134       CEL1    106    DDOPC   C320    134    -0.150000    12.0110   ; qtot -0.150
   135       HEL1    106    DDOPC   H20X    135     0.150000     1.0080   ; qtot  0.000
   136       CTL2    106    DDOPC   C321    136    -0.180000    12.0110   ; qtot -0.180
   137       HAL2    106    DDOPC   H21X    137     0.090000     1.0080   ; qtot -0.090
   138       HAL2    106    DDOPC   H21Y    138     0.090000     1.0080   ; qtot  0.000
   139       CTL3    106    DDOPC   C322    139    -0.270000    12.0110   ; qtot -0.270
   140       HAL3    106    DDOPC   H22X    140     0.090000     1.0080   ; qtot -0.180
   141       HAL3    106    DDOPC   H22Y    141     0.090000     1.0080   ; qtot -0.090
   142       HAL3    106    DDOPC   H22Z    142     0.090000     1.0080   ; qtot  0.000

[ bonds ]
; ai	aj	funct	b0	Kb
    1     2     1
    1     6     1
    1    10     1
    1    14     1
    2     3     1
    2     4     1
    2     5     1
    6     7     1
    6     8     1
    6     9     1
   10    11     1
   10    12     1
   10    13     1
   14    15     1
   14    16     1
   14    17     1
   17    18     1
   17    19     1
   17    23     1
   20    21     1
   20    22     1
   23    20     1
   20    24     1
   24    25     1
   25    26     1
   25    27     1
   25    28     1
   28    29     1
   28    30     1
   28    36     1
   30    31     1
   31    32     1
   31    33     1
   33    34     1
   33    35     1
   33    45     1
   36    37     1
   36    38     1
   36    39     1
   39    40     1
   40    41     1
   40    42     1
   42    43     1
   42    44     1
   42    94     1
   45    46     1
   45    47     1
   45    48     1
   48    49     1
   48    50     1
   50    51     1
   50    52     1
   52    53     1
   52    54     1
   52    55     1
   55    56     1
   55    57     1
   57    58     1
   57    59     1
   59    60     1
   59    61     1
   59    62     1
   62    63     1
   62    64     1
   64    65     1
   64    66     1
   66    67     1
   66    68     1
   66    69     1
   69    70     1
   69    71     1
   71    72     1
   71    73     1
   73    74     1
   73    75     1
   73    76     1
   76    77     1
   76    78     1
   78    79     1
   78    80     1
   80    81     1
   80    82     1
   80    83     1
   83    84     1
   83    85     1
   85    86     1
   85    87     1
   87    88     1
   87    89     1
   87    90     1
   90    91     1
   90    92     1
   90    93     1
   94    95     1
   94    96     1
   94    97     1
   97    98     1
   97    99     1
   99   100     1
   99   101     1
  101   102     1
  101   103     1
  101   104     1
  104   105     1
  104   106     1
  106   107     1
  106   108     1
  108   109     1
  108   110     1
  108   111     1
  111   112     1
  111   113     1
  113   114     1
  113   115     1
  115   116     1
  115   117     1
  115   118     1
  118   119     1
  118   120     1
  120   121     1
  120   122     1
  122   123     1
  122   124     1
  122   125     1
  125   126     1
  125   127     1
  127   128     1
  127   129     1
  129   130     1
  129   131     1
  129   132     1
  132   133     1
  132   134     1
  134   135     1
  134   136     1
  136   137     1
  136   138     1
  136   139     1
  139   140     1
  139   141     1
  139   142     1

[ pairs ]
; ai	aj	funct	c6	c12 or
; ai	aj	funct	fudgeQQ	q1	q2	c6	c12
    1    18     1
    1    19     1
    1    23     1
    2     7     1
    2     8     1
    2     9     1
    2    11     1
    2    12     1
    2    13     1
    2    15     1
    2    16     1
    2    17     1
    3     6     1
    3    10     1
    3    14     1
    4     6     1
    4    10     1
    4    14     1
    5     6     1
    5    10     1
    5    14     1
    6    11     1
    6    12     1
    6    13     1
    6    15     1
    6    16     1
    6    17     1
    7    10     1
    7    14     1
    8    10     1
    8    14     1
    9    10     1
    9    14     1
   10    15     1
   10    16     1
   10    17     1
   11    14     1
   12    14     1
   13    14     1
   14    20     1
   15    18     1
   15    19     1
   15    23     1
   16    18     1
   16    19     1
   16    23     1
   17    21     1
   17    22     1
   17    24     1
   18    20     1
   19    20     1
   20    26     1
   20    27     1
   20    28     1
   21    25     1
   22    25     1
   23    25     1
   24    29     1
   24    30     1
   24    36     1
   25    31     1
   25    37     1
   25    38     1
   25    39     1
   26    29     1
   26    30     1
   26    36     1
   27    29     1
   27    30     1
   27    36     1
   28    32     1
   28    33     1
   28    40     1
   29    31     1
   29    37     1
   29    38     1
   29    39     1
   30    34     1
   30    35     1
   30    37     1
   30    38     1
   30    39     1
   30    45     1
   31    36     1
   31    46     1
   31    47     1
   31    48     1
   32    34     1
   32    35     1
   32    45     1
   33    49     1
   33    50     1
   34    46     1
   34    47     1
   34    48     1
   35    46     1
   35    47     1
   35    48     1
   36    41     1
   36    42     1
   37    40     1
   38    40     1
   39    43     1
   39    44     1
   39    94     1
   40    95     1
   40    96     1
   40    97     1
   41    43     1
   41    44     1
   41    94     1
   42    98     1
   42    99     1
   43    95     1
   43    96     1
   43    97     1
   44    95     1
   44    96     1
   44    97     1
   45    51     1
   45    52     1
   46    49     1
   46    50     1
   47    49     1
   47    50     1
   48    53     1
   48    54     1
   48    55     1
   49    51     1
   49    52     1
   50    56     1
   50    57     1
   51    53     1
   51    54     1
   51    55     1
   52    58     1
   52    59     1
   53    56     1
   53    57     1
   54    56     1
   54    57     1
   55    60     1
   55    61     1
   55    62     1
   56    58     1
   56    59     1
   57    63     1
   57    64     1
   58    60     1
   58    61     1
   58    62     1
   59    65     1
   59    66     1
   60    63     1
   60    64     1
   61    63     1
   61    64     1
   62    67     1
   62    68     1
   62    69     1
   63    65     1
   63    66     1
   64    70     1
   64    71     1
   65    67     1
   65    68     1
   65    69     1
   66    72     1
   66    73     1
   67    70     1
   67    71     1
   68    70     1
   68    71     1
   69    74     1
   69    75     1
   69    76     1
   70    72     1
   70    73     1
   71    77     1
   71    78     1
   72    74     1
   72    75     1
   72    76     1
   73    79     1
   73    80     1
   74    77     1
   74    78     1
   75    77     1
   75    78     1
   76    81     1
   76    82     1
   76    83     1
   77    79     1
   77    80     1
   78    84     1
   78    85     1
   79    81     1
   79    82     1
   79    83     1
   80    86     1
   80    87     1
   81    84     1
   81    85     1
   82    84     1
   82    85     1
   83    88     1
   83    89     1
   83    90     1
   84    86     1
   84    87     1
   85    91     1
   85    92     1
   85    93     1
   86    88     1
   86    89     1
   86    90     1
   88    91     1
   88    92     1
   88    93     1
   89    91     1
   89    92     1
   89    93     1
   94   100     1
   94   101     1
   95    98     1
   95    99     1
   96    98     1
   96    99     1
   97   102     1
   97   103     1
   97   104     1
   98   100     1
   98   101     1
   99   105     1
   99   106     1
  100   102     1
  100   103     1
  100   104     1
  101   107     1
  101   108     1
  102   105     1
  102   106     1
  103   105     1
  103   106     1
  104   109     1
  104   110     1
  104   111     1
  105   107     1
  105   108     1
  106   112     1
  106   113     1
  107   109     1
  107   110     1
  107   111     1
  108   114     1
  108   115     1
  109   112     1
  109   113     1
  110   112     1
  110   113     1
  111   116     1
  111   117     1
  111   118     1
  112   114     1
  112   115     1
  113   119     1
  113   120     1
  114   116     1
  114   117     1
  114   118     1
  115   121     1
  115   122     1
  116   119     1
  116   120     1
  117   119     1
  117   120     1
  118   123     1
  118   124     1
  118   125     1
  119   121     1
  119   122     1
  120   126     1
  120   127     1
  121   123     1
  121   124     1
  121   125     1
  122   128     1
  122   129     1
  123   126     1
  123   127     1
  124   126     1
  124   127     1
  125   130     1
  125   131     1
  125   132     1
  126   128     1
  126   129     1
  127   133     1
  127   134     1
  128   130     1
  128   131     1
  128   132     1
  129   135     1
  129   136     1
  130   133     1
  130   134     1
  131   133     1
  131   134     1
  132   137     1
  132   138     1
  132   139     1
  133   135     1
  133   136     1
  134   140     1
  134   141     1
  134   142     1
  135   137     1
  135   138     1
  135   139     1
  137   140     1
  137   141     1
  137   142     1
  138   140     1
  138   141     1
  138   142     1

[ angles ] 
; ai	aj	ak	funct	th0	cth	S0	Kub
    2     1     6     5
    2     1    10     5
    2     1    14     5
    6     1    10     5
    6     1    14     5
   10     1    14     5
    1     2     3     5
    1     2     4     5
    1     2     5     5
    3     2     4     5
    3     2     5     5
    4     2     5     5
    1     6     7     5
    1     6     8     5
    1     6     9     5
    7     6     8     5
    7     6     9     5
    8     6     9     5
    1    10    11     5
    1    10    12     5
    1    10    13     5
   11    10    12     5
   11    10    13     5
   12    10    13     5
    1    14    15     5
    1    14    16     5
    1    14    17     5
   15    14    16     5
   15    14    17     5
   16    14    17     5
   14    17    18     5
   14    17    19     5
   14    17    23     5
   18    17    19     5
   18    17    23     5
   19    17    23     5
   21    20    22     5
   21    20    23     5
   21    20    24     5
   22    20    23     5
   22    20    24     5
   23    20    24     5
   17    23    20     5
   20    24    25     5
   24    25    26     5
   24    25    27     5
   24    25    28     5
   26    25    27     5
   26    25    28     5
   27    25    28     5
   25    28    29     5
   25    28    30     5
   25    28    36     5
   29    28    30     5
   29    28    36     5
   30    28    36     5
   28    30    31     5
   30    31    32     5
   30    31    33     5
   32    31    33     5
   31    33    34     5
   31    33    35     5
   31    33    45     5
   34    33    35     5
   34    33    45     5
   35    33    45     5
   28    36    37     5
   28    36    38     5
   28    36    39     5
   37    36    38     5
   37    36    39     5
   38    36    39     5
   36    39    40     5
   39    40    41     5
   39    40    42     5
   41    40    42     5
   40    42    43     5
   40    42    44     5
   40    42    94     5
   43    42    44     5
   43    42    94     5
   44    42    94     5
   33    45    46     5
   33    45    47     5
   33    45    48     5
   46    45    47     5
   46    45    48     5
   47    45    48     5
   45    48    49     5
   45    48    50     5
   49    48    50     5
   48    50    51     5
   48    50    52     5
   51    50    52     5
   50    52    53     5
   50    52    54     5
   50    52    55     5
   53    52    54     5
   53    52    55     5
   54    52    55     5
   52    55    56     5
   52    55    57     5
   56    55    57     5
   55    57    58     5
   55    57    59     5
   58    57    59     5
   57    59    60     5
   57    59    61     5
   57    59    62     5
   60    59    61     5
   60    59    62     5
   61    59    62     5
   59    62    63     5
   59    62    64     5
   63    62    64     5
   62    64    65     5
   62    64    66     5
   65    64    66     5
   64    66    67     5
   64    66    68     5
   64    66    69     5
   67    66    68     5
   67    66    69     5
   68    66    69     5
   66    69    70     5
   66    69    71     5
   70    69    71     5
   69    71    72     5
   69    71    73     5
   72    71    73     5
   71    73    74     5
   71    73    75     5
   71    73    76     5
   74    73    75     5
   74    73    76     5
   75    73    76     5
   73    76    77     5
   73    76    78     5
   77    76    78     5
   76    78    79     5
   76    78    80     5
   79    78    80     5
   78    80    81     5
   78    80    82     5
   78    80    83     5
   81    80    82     5
   81    80    83     5
   82    80    83     5
   80    83    84     5
   80    83    85     5
   84    83    85     5
   83    85    86     5
   83    85    87     5
   86    85    87     5
   85    87    88     5
   85    87    89     5
   85    87    90     5
   88    87    89     5
   88    87    90     5
   89    87    90     5
   87    90    91     5
   87    90    92     5
   87    90    93     5
   91    90    92     5
   91    90    93     5
   92    90    93     5
   42    94    95     5
   42    94    96     5
   42    94    97     5
   95    94    96     5
   95    94    97     5
   96    94    97     5
   94    97    98     5
   94    97    99     5
   98    97    99     5
   97    99   100     5
   97    99   101     5
  100    99   101     5
   99   101   102     5
   99   101   103     5
   99   101   104     5
  102   101   103     5
  102   101   104     5
  103   101   104     5
  101   104   105     5
  101   104   106     5
  105   104   106     5
  104   106   107     5
  104   106   108     5
  107   106   108     5
  106   108   109     5
  106   108   110     5
  106   108   111     5
  109   108   110     5
  109   108   111     5
  110   108   111     5
  108   111   112     5
  108   111   113     5
  112   111   113     5
  111   113   114     5
  111   113   115     5
  114   113   115     5
  113   115   116     5
  113   115   117     5
  113   115   118     5
  116   115   117     5
  116   115   118     5
  117   115   118     5
  115   118   119     5
  115   118   120     5
  119   118   120     5
  118   120   121     5
  118   120   122     5
  121   120   122     5
  120   122   123     5
  120   122   124     5
  120   122   125     5
  123   122   124     5
  123   122   125     5
  124   122   125     5
  122   125   126     5
  122   125   127     5
  126   125   127     5
  125   127   128     5
  125   127   129     5
  128   127   129     5
  127   129   130     5
  127   129   131     5
  127   129   132     5
  130   129   131     5
  130   129   132     5
  131   129   132     5
  129   132   133     5
  129   132   134     5
  133   132   134     5
  132   134   135     5
  132   134   136     5
  135   134   136     5
  134   136   137     5
  134   136   138     5
  134   136   139     5
  137   136   138     5
  137   136   139     5
  138   136   139     5
  136   139   140     5
  136   139   141     5
  136   139   142     5
  140   139   141     5
  140   139   142     5
  141   139   142     5

[ dihedrals ]
; ai	aj	ak	al	funct	phi0	cp	mult
    2     1     6     7     9
    2     1     6     8     9
    2     1     6     9     9
    2     1    10    11     9
    2     1    10    12     9
    2     1    10    13     9
    6     1    10    11     9
    6     1    10    12     9
    6     1    10    13     9
    2     1    14    15     9
    2     1    14    16     9
    2     1    14    17     9
    6     1    14    15     9
    6     1    14    16     9
    6     1    14    17     9
   10     1    14    15     9
   10     1    14    16     9
   10     1    14    17     9
    3     2     1     6     9
    3     2     1    10     9
    3     2     1    14     9
    4     2     1     6     9
    4     2     1    10     9
    4     2     1    14     9
    5     2     1     6     9
    5     2     1    10     9
    5     2     1    14     9
    7     6     1    10     9
    7     6     1    14     9
    8     6     1    10     9
    8     6     1    14     9
    9     6     1    10     9
    9     6     1    14     9
   11    10     1    14     9
   12    10     1    14     9
   13    10     1    14     9
    1    14    17    18     9
    1    14    17    19     9
    1    14    17    23     9
   15    14    17    18     9
   15    14    17    19     9
   15    14    17    23     9
   16    14    17    18     9
   16    14    17    19     9
   16    14    17    23     9
   14    17    23    20     9
   18    17    23    20     9
   19    17    23    20     9
   21    20    24    25     9
   22    20    24    25     9
   23    20    24    25     9
   17    23    20    21     9
   17    23    20    22     9
   17    23    20    24     9
   20    24    25    26     9
   20    24    25    27     9
   20    24    25    28     9
   24    25    28    29     9
   24    25    28    30     9
   24    25    28    36     9
   26    25    28    29     9
   26    25    28    30     9
   26    25    28    36     9
   27    25    28    29     9
   27    25    28    30     9
   27    25    28    36     9
   25    28    30    31     9
   29    28    30    31     9
   25    28    36    37     9
   25    28    36    38     9
   25    28    36    39     9
   29    28    36    37     9
   29    28    36    38     9
   29    28    36    39     9
   30    28    36    37     9
   30    28    36    38     9
   30    28    36    39     9
   31    30    28    36     9
   28    30    31    32     9
   28    30    31    33     9
   30    31    33    34     9
   30    31    33    35     9
   30    31    33    45     9
   32    31    33    34     9
   32    31    33    35     9
   32    31    33    45     9
   31    33    45    46     9
   31    33    45    47     9
   31    33    45    48     9
   34    33    45    46     9
   34    33    45    47     9
   34    33    45    48     9
   35    33    45    46     9
   35    33    45    47     9
   35    33    45    48     9
   28    36    39    40     9
   37    36    39    40     9
   38    36    39    40     9
   36    39    40    41     9
   36    39    40    42     9
   39    40    42    43     9
   39    40    42    44     9
   39    40    42    94     9
   41    40    42    43     9
   41    40    42    44     9
   41    40    42    94     9
   40    42    94    95     9
   40    42    94    96     9
   40    42    94    97     9
   43    42    94    95     9
   43    42    94    96     9
   43    42    94    97     9
   44    42    94    95     9
   44    42    94    96     9
   44    42    94    97     9
   33    45    48    49     9
   33    45    48    50     9
   46    45    48    49     9
   46    45    48    50     9
   47    45    48    49     9
   47    45    48    50     9
   45    48    50    51     9
   45    48    50    52     9
   49    48    50    51     9
   49    48    50    52     9
   48    50    52    53     9
   48    50    52    54     9
   48    50    52    55     9
   51    50    52    53     9
   51    50    52    54     9
   51    50    52    55     9
   50    52    55    56     9
   50    52    55    57     9
   53    52    55    56     9
   53    52    55    57     9
   54    52    55    56     9
   54    52    55    57     9
   52    55    57    58     9
   52    55    57    59     9
   56    55    57    58     9
   56    55    57    59     9
   55    57    59    60     9
   55    57    59    61     9
   55    57    59    62     9
   58    57    59    60     9
   58    57    59    61     9
   58    57    59    62     9
   57    59    62    63     9
   57    59    62    64     9
   60    59    62    63     9
   60    59    62    64     9
   61    59    62    63     9
   61    59    62    64     9
   59    62    64    65     9
   59    62    64    66     9
   63    62    64    65     9
   63    62    64    66     9
   62    64    66    67     9
   62    64    66    68     9
   62    64    66    69     9
   65    64    66    67     9
   65    64    66    68     9
   65    64    66    69     9
   64    66    69    70     9
   64    66    69    71     9
   67    66    69    70     9
   67    66    69    71     9
   68    66    69    70     9
   68    66    69    71     9
   66    69    71    72     9
   66    69    71    73     9
   70    69    71    72     9
   70    69    71    73     9
   69    71    73    74     9
   69    71    73    75     9
   69    71    73    76     9
   72    71    73    74     9
   72    71    73    75     9
   72    71    73    76     9
   71    73    76    77     9
   71    73    76    78     9
   74    73    76    77     9
   74    73    76    78     9
   75    73    76    77     9
   75    73    76    78     9
   73    76    78    79     9
   73    76    78    80     9
   77    76    78    79     9
   77    76    78    80     9
   76    78    80    81     9
   76    78    80    82     9
   76    78    80    83     9
   79    78    80    81     9
   79    78    80    82     9
   79    78    80    83     9
   78    80    83    84     9
   78    80    83    85     9
   81    80    83    84     9
   81    80    83    85     9
   82    80    83    84     9
   82    80    83    85     9
   80    83    85    86     9
   80    83    85    87     9
   84    83    85    86     9
   84    83    85    87     9
   83    85    87    88     9
   83    85    87    89     9
   83    85    87    90     9
   86    85    87    88     9
   86    85    87    89     9
   86    85    87    90     9
   85    87    90    91     9
   85    87    90    92     9
   85    87    90    93     9
   88    87    90    91     9
   88    87    90    92     9
   88    87    90    93     9
   89    87    90    91     9
   89    87    90    92     9
   89    87    90    93     9
   42    94    97    98     9
   42    94    97    99     9
   95    94    97    98     9
   95    94    97    99     9
   96    94    97    98     9
   96    94    97    99     9
   94    97    99   100     9
   94    97    99   101     9
   98    97    99   100     9
   98    97    99   101     9
   97    99   101   102     9
   97    99   101   103     9
   97    99   101   104     9
  100    99   101   102     9
  100    99   101   103     9
  100    99   101   104     9
   99   101   104   105     9
   99   101   104   106     9
  102   101   104   105     9
  102   101   104   106     9
  103   101   104   105     9
  103   101   104   106     9
  101   104   106   107     9
  101   104   106   108     9
  105   104   106   107     9
  105   104   106   108     9
  104   106   108   109     9
  104   106   108   110     9
  104   106   108   111     9
  107   106   108   109     9
  107   106   108   110     9
  107   106   108   111     9
  106   108   111   112     9
  106   108   111   113     9
  109   108   111   112     9
  109   108   111   113     9
  110   108   111   112     9
  110   108   111   113     9
  108   111   113   114     9
  108   111   113   115     9
  112   111   113   114     9
  112   111   113   115     9
  111   113   115   116     9
  111   113   115   117     9
  111   113   115   118     9
  114   113   115   116     9
  114   113   115   117     9
  114   113   115   118     9
  113   115   118   119     9
  113   115   118   120     9
  116   115   118   119     9
  116   115   118   120     9
  117   115   118   119     9
  117   115   118   120     9
  115   118   120   121     9
  115   118   120   122     9
  119   118   120   121     9
  119   118   120   122     9
  118   120   122   123     9
  118   120   122   124     9
  118   120   122   125     9
  121   120   122   123     9
  121   120   122   124     9
  121   120   122   125     9
  120   122   125   126     9
  120   122   125   127     9
  123   122   125   126     9
  123   122   125   127     9
  124   122   125   126     9
  124   122   125   127     9
  122   125   127   128     9
  122   125   127   129     9
  126   125   127   128     9
  126   125   127   129     9
  125   127   129   130     9
  125   127   129   131     9
  125   127   129   132     9
  128   127   129   130     9
  128   127   129   131     9
  128   127   129   132     9
  127   129   132   133     9
  127   129   132   134     9
  130   129   132   133     9
  130   129   132   134     9
  131   129   132   133     9
  131   129   132   134     9
  129   132   134   135     9
  129   132   134   136     9
  133   132   134   135     9
  133   132   134   136     9
  132   134   136   137     9
  132   134   136   138     9
  132   134   136   139     9
  135   134   136   137     9
  135   134   136   138     9
  135   134   136   139     9
  134   136   139   140     9
  134   136   139   141     9
  134   136   139   142     9
  137   136   139   140     9
  137   136   139   141     9
  137   136   139   142     9
  138   136   139   140     9
  138   136   139   141     9
  138   136   139   142     9

[ dihedrals ]
; ai	aj	ak	al	funct	q0	cq
   31    30    33    32     2
   40    39    42    41     2

#ifdef POSRES
[ position_restraints ]
   20     1     0.0             0.0            POSRES_FC_LIPID
#endif

#ifdef DIHRES
[ dihedral_restraints ]
   25    36    28    30     1   -120.0      2.5       DIHRES_FC
   45    48    50    52     1      0.0      0.0       DIHRES_FC
   52    55    57    59     1      0.0      0.0       DIHRES_FC
   59    62    64    66     1      0.0      0.0       DIHRES_FC
   66    69    71    73     1      0.0      0.0       DIHRES_FC
   73    76    78    80     1      0.0      0.0       DIHRES_FC
   80    83    85    87     1      0.0      0.0       DIHRES_FC
   94    97    99   101     1      0.0      0.0       DIHRES_FC
  101   104   106   108     1      0.0      0.0       DIHRES_FC
  108   111   113   115     1      0.0      0.0       DIHRES_FC
  115   118   120   122     1      0.0      0.0       DIHRES_FC
  122   125   127   129     1      0.0      0.0       DIHRES_FC
  129   132   134   136     1      0.0      0.0       DIHRES_FC
#endif
