;;
;; Generated by CHARMM-GUI FF-Converter
;;
;; Correspondance:
;; jul316@lehigh.edu or wonpil@lehigh.edu
;;
;; GROMACS topology file for DGGL
;;


[ moleculetype ]
; name	nrexcl
DGGL	     3

[ atoms ]
; nr	type	resnr	residu	atom	cgnr	charge	mass
     1       CTL2    117     DGGL     C1      1     0.050000    12.0110   ; qtot  0.050
     2       HAL2    117     DGGL     HA      2     0.090000     1.0080   ; qtot  0.140
     3       HAL2    117     DGGL     HB      3     0.090000     1.0080   ; qtot  0.230
     4        OHL    117     DGGL    O11      4    -0.650000    15.9994   ; qtot -0.420
     5        HOL    117     DGGL    HO1      5     0.420000     1.0080   ; qtot -0.000
     6       CTL1    117     DGGL     C2      6     0.170000    12.0110   ; qtot  0.170
     7       HAL1    117     DGGL     HS      7     0.090000     1.0080   ; qtot  0.260
     8        OSL    117     DGGL    O21      8    -0.490000    15.9994   ; qtot -0.230
     9         CL    117     DGGL    C21      9     0.900000    12.0110   ; qtot  0.670
    10        OBL    117     DGGL    O22     10    -0.630000    15.9994   ; qtot  0.040
    11       CTL2    117     DGGL    C22     11    -0.220000    12.0110   ; qtot -0.180
    12       HAL2    117     DGGL    H2R     12     0.090000     1.0080   ; qtot -0.090
    13       HAL2    117     DGGL    H2S     13     0.090000     1.0080   ; qtot -0.000
    14       CTL2    117     DGGL     C3     14     0.080000    12.0110   ; qtot  0.080
    15       HAL2    117     DGGL     HX     15     0.090000     1.0080   ; qtot  0.170
    16       HAL2    117     DGGL     HY     16     0.090000     1.0080   ; qtot  0.260
    17        OSL    117     DGGL    O31     17    -0.490000    15.9994   ; qtot -0.230
    18         CL    117     DGGL    C31     18     0.900000    12.0110   ; qtot  0.670
    19        OBL    117     DGGL    O32     19    -0.630000    15.9994   ; qtot  0.040
    20       CTL2    117     DGGL    C32     20    -0.220000    12.0110   ; qtot -0.180
    21       HAL2    117     DGGL    H2X     21     0.090000     1.0080   ; qtot -0.090
    22       HAL2    117     DGGL    H2Y     22     0.090000     1.0080   ; qtot -0.000
    23       CTL2    117     DGGL    C23     23    -0.180000    12.0110   ; qtot -0.180
    24       HAL2    117     DGGL    H3R     24     0.090000     1.0080   ; qtot -0.090
    25       HAL2    117     DGGL    H3S     25     0.090000     1.0080   ; qtot -0.000
    26       CTL2    117     DGGL    C24     26    -0.180000    12.0110   ; qtot -0.180
    27       HAL2    117     DGGL    H4R     27     0.090000     1.0080   ; qtot -0.090
    28       HAL2    117     DGGL    H4S     28     0.090000     1.0080   ; qtot -0.000
    29       CTL2    117     DGGL    C25     29    -0.180000    12.0110   ; qtot -0.180
    30       HAL2    117     DGGL    H5R     30     0.090000     1.0080   ; qtot -0.090
    31       HAL2    117     DGGL    H5S     31     0.090000     1.0080   ; qtot -0.000
    32       CTL2    117     DGGL    C26     32    -0.180000    12.0110   ; qtot -0.180
    33       HAL2    117     DGGL    H6R     33     0.090000     1.0080   ; qtot -0.090
    34       HAL2    117     DGGL    H6S     34     0.090000     1.0080   ; qtot -0.000
    35       CTL2    117     DGGL    C27     35    -0.180000    12.0110   ; qtot -0.180
    36       HAL2    117     DGGL    H7R     36     0.090000     1.0080   ; qtot -0.090
    37       HAL2    117     DGGL    H7S     37     0.090000     1.0080   ; qtot -0.000
    38       CTL2    117     DGGL    C28     38    -0.180000    12.0110   ; qtot -0.180
    39       HAL2    117     DGGL    H8R     39     0.090000     1.0080   ; qtot -0.090
    40       HAL2    117     DGGL    H8S     40     0.090000     1.0080   ; qtot -0.000
    41       CTL2    117     DGGL    C29     41    -0.180000    12.0110   ; qtot -0.180
    42       HAL2    117     DGGL    H9R     42     0.090000     1.0080   ; qtot -0.090
    43       HAL2    117     DGGL    H9S     43     0.090000     1.0080   ; qtot -0.000
    44       CTL2    117     DGGL   C210     44    -0.180000    12.0110   ; qtot -0.180
    45       HAL2    117     DGGL   H10R     45     0.090000     1.0080   ; qtot -0.090
    46       HAL2    117     DGGL   H10S     46     0.090000     1.0080   ; qtot -0.000
    47       CEL1    117     DGGL   C211     47    -0.150000    12.0110   ; qtot -0.150
    48       HEL1    117     DGGL   H11R     48     0.150000     1.0080   ; qtot -0.000
    49       CEL1    117     DGGL   C212     49    -0.150000    12.0110   ; qtot -0.150
    50       HEL1    117     DGGL   H12R     50     0.150000     1.0080   ; qtot -0.000
    51       CTL2    117     DGGL   C213     51    -0.180000    12.0110   ; qtot -0.180
    52       HAL2    117     DGGL   H13R     52     0.090000     1.0080   ; qtot -0.090
    53       HAL2    117     DGGL   H13S     53     0.090000     1.0080   ; qtot -0.000
    54       CTL2    117     DGGL   C214     54    -0.180000    12.0110   ; qtot -0.180
    55       HAL2    117     DGGL   H14R     55     0.090000     1.0080   ; qtot -0.090
    56       HAL2    117     DGGL   H14S     56     0.090000     1.0080   ; qtot -0.000
    57       CTL2    117     DGGL   C215     57    -0.180000    12.0110   ; qtot -0.180
    58       HAL2    117     DGGL   H15R     58     0.090000     1.0080   ; qtot -0.090
    59       HAL2    117     DGGL   H15S     59     0.090000     1.0080   ; qtot -0.000
    60       CTL2    117     DGGL   C216     60    -0.180000    12.0110   ; qtot -0.180
    61       HAL2    117     DGGL   H16R     61     0.090000     1.0080   ; qtot -0.090
    62       HAL2    117     DGGL   H16S     62     0.090000     1.0080   ; qtot -0.000
    63       CTL2    117     DGGL   C217     63    -0.180000    12.0110   ; qtot -0.180
    64       HAL2    117     DGGL   H17R     64     0.090000     1.0080   ; qtot -0.090
    65       HAL2    117     DGGL   H17S     65     0.090000     1.0080   ; qtot -0.000
    66       CTL2    117     DGGL   C218     66    -0.180000    12.0110   ; qtot -0.180
    67       HAL2    117     DGGL   H18R     67     0.090000     1.0080   ; qtot -0.090
    68       HAL2    117     DGGL   H18S     68     0.090000     1.0080   ; qtot -0.000
    69       CTL2    117     DGGL   C219     69    -0.180000    12.0110   ; qtot -0.180
    70       HAL2    117     DGGL   H19R     70     0.090000     1.0080   ; qtot -0.090
    71       HAL2    117     DGGL   H19S     71     0.090000     1.0080   ; qtot -0.000
    72       CTL3    117     DGGL   C220     72    -0.270000    12.0110   ; qtot -0.270
    73       HAL3    117     DGGL   H20R     73     0.090000     1.0080   ; qtot -0.180
    74       HAL3    117     DGGL   H20S     74     0.090000     1.0080   ; qtot -0.090
    75       HAL3    117     DGGL   H20T     75     0.090000     1.0080   ; qtot -0.000
    76       CTL2    117     DGGL    C33     76    -0.180000    12.0110   ; qtot -0.180
    77       HAL2    117     DGGL    H3X     77     0.090000     1.0080   ; qtot -0.090
    78       HAL2    117     DGGL    H3Y     78     0.090000     1.0080   ; qtot -0.000
    79       CTL2    117     DGGL    C34     79    -0.180000    12.0110   ; qtot -0.180
    80       HAL2    117     DGGL    H4X     80     0.090000     1.0080   ; qtot -0.090
    81       HAL2    117     DGGL    H4Y     81     0.090000     1.0080   ; qtot -0.000
    82       CTL2    117     DGGL    C35     82    -0.180000    12.0110   ; qtot -0.180
    83       HAL2    117     DGGL    H5X     83     0.090000     1.0080   ; qtot -0.090
    84       HAL2    117     DGGL    H5Y     84     0.090000     1.0080   ; qtot -0.000
    85       CTL2    117     DGGL    C36     85    -0.180000    12.0110   ; qtot -0.180
    86       HAL2    117     DGGL    H6X     86     0.090000     1.0080   ; qtot -0.090
    87       HAL2    117     DGGL    H6Y     87     0.090000     1.0080   ; qtot -0.000
    88       CTL2    117     DGGL    C37     88    -0.180000    12.0110   ; qtot -0.180
    89       HAL2    117     DGGL    H7X     89     0.090000     1.0080   ; qtot -0.090
    90       HAL2    117     DGGL    H7Y     90     0.090000     1.0080   ; qtot -0.000
    91       CTL2    117     DGGL    C38     91    -0.180000    12.0110   ; qtot -0.180
    92       HAL2    117     DGGL    H8X     92     0.090000     1.0080   ; qtot -0.090
    93       HAL2    117     DGGL    H8Y     93     0.090000     1.0080   ; qtot -0.000
    94       CTL2    117     DGGL    C39     94    -0.180000    12.0110   ; qtot -0.180
    95       HAL2    117     DGGL    H9X     95     0.090000     1.0080   ; qtot -0.090
    96       HAL2    117     DGGL    H9Y     96     0.090000     1.0080   ; qtot -0.000
    97       CTL2    117     DGGL   C310     97    -0.180000    12.0110   ; qtot -0.180
    98       HAL2    117     DGGL   H10X     98     0.090000     1.0080   ; qtot -0.090
    99       HAL2    117     DGGL   H10Y     99     0.090000     1.0080   ; qtot -0.000
   100       CEL1    117     DGGL   C311    100    -0.150000    12.0110   ; qtot -0.150
   101       HEL1    117     DGGL   H11X    101     0.150000     1.0080   ; qtot -0.000
   102       CEL1    117     DGGL   C312    102    -0.150000    12.0110   ; qtot -0.150
   103       HEL1    117     DGGL   H12X    103     0.150000     1.0080   ; qtot -0.000
   104       CTL2    117     DGGL   C313    104    -0.180000    12.0110   ; qtot -0.180
   105       HAL2    117     DGGL   H13X    105     0.090000     1.0080   ; qtot -0.090
   106       HAL2    117     DGGL   H13Y    106     0.090000     1.0080   ; qtot -0.000
   107       CTL2    117     DGGL   C314    107    -0.180000    12.0110   ; qtot -0.180
   108       HAL2    117     DGGL   H14X    108     0.090000     1.0080   ; qtot -0.090
   109       HAL2    117     DGGL   H14Y    109     0.090000     1.0080   ; qtot -0.000
   110       CTL2    117     DGGL   C315    110    -0.180000    12.0110   ; qtot -0.180
   111       HAL2    117     DGGL   H15X    111     0.090000     1.0080   ; qtot -0.090
   112       HAL2    117     DGGL   H15Y    112     0.090000     1.0080   ; qtot -0.000
   113       CTL2    117     DGGL   C316    113    -0.180000    12.0110   ; qtot -0.180
   114       HAL2    117     DGGL   H16X    114     0.090000     1.0080   ; qtot -0.090
   115       HAL2    117     DGGL   H16Y    115     0.090000     1.0080   ; qtot -0.000
   116       CTL2    117     DGGL   C317    116    -0.180000    12.0110   ; qtot -0.180
   117       HAL2    117     DGGL   H17X    117     0.090000     1.0080   ; qtot -0.090
   118       HAL2    117     DGGL   H17Y    118     0.090000     1.0080   ; qtot -0.000
   119       CTL2    117     DGGL   C318    119    -0.180000    12.0110   ; qtot -0.180
   120       HAL2    117     DGGL   H18X    120     0.090000     1.0080   ; qtot -0.090
   121       HAL2    117     DGGL   H18Y    121     0.090000     1.0080   ; qtot -0.000
   122       CTL2    117     DGGL   C319    122    -0.180000    12.0110   ; qtot -0.180
   123       HAL2    117     DGGL   H19X    123     0.090000     1.0080   ; qtot -0.090
   124       HAL2    117     DGGL   H19Y    124     0.090000     1.0080   ; qtot -0.000
   125       CTL3    117     DGGL   C320    125    -0.270000    12.0110   ; qtot -0.270
   126       HAL3    117     DGGL   H20X    126     0.090000     1.0080   ; qtot -0.180
   127       HAL3    117     DGGL   H20Y    127     0.090000     1.0080   ; qtot -0.090
   128       HAL3    117     DGGL   H20Z    128     0.090000     1.0080   ; qtot -0.000

[ bonds ]
; ai	aj	funct	b0	Kb
    1     2     1
    1     3     1
    1     4     1
    1     6     1
    4     5     1
    6     7     1
    6     8     1
    6    14     1
    8     9     1
    9    10     1
    9    11     1
   11    12     1
   11    13     1
   11    23     1
   14    15     1
   14    16     1
   14    17     1
   17    18     1
   18    19     1
   18    20     1
   20    21     1
   20    22     1
   20    76     1
   23    24     1
   23    25     1
   23    26     1
   26    27     1
   26    28     1
   26    29     1
   29    30     1
   29    31     1
   29    32     1
   32    33     1
   32    34     1
   32    35     1
   35    36     1
   35    37     1
   35    38     1
   38    39     1
   38    40     1
   38    41     1
   41    42     1
   41    43     1
   41    44     1
   44    45     1
   44    46     1
   44    47     1
   47    48     1
   47    49     1
   49    50     1
   49    51     1
   51    52     1
   51    53     1
   51    54     1
   54    55     1
   54    56     1
   54    57     1
   57    58     1
   57    59     1
   57    60     1
   60    61     1
   60    62     1
   60    63     1
   63    64     1
   63    65     1
   63    66     1
   66    67     1
   66    68     1
   66    69     1
   69    70     1
   69    71     1
   69    72     1
   72    73     1
   72    74     1
   72    75     1
   76    77     1
   76    78     1
   76    79     1
   79    80     1
   79    81     1
   79    82     1
   82    83     1
   82    84     1
   82    85     1
   85    86     1
   85    87     1
   85    88     1
   88    89     1
   88    90     1
   88    91     1
   91    92     1
   91    93     1
   91    94     1
   94    95     1
   94    96     1
   94    97     1
   97    98     1
   97    99     1
   97   100     1
  100   101     1
  100   102     1
  102   103     1
  102   104     1
  104   105     1
  104   106     1
  104   107     1
  107   108     1
  107   109     1
  107   110     1
  110   111     1
  110   112     1
  110   113     1
  113   114     1
  113   115     1
  113   116     1
  116   117     1
  116   118     1
  116   119     1
  119   120     1
  119   121     1
  119   122     1
  122   123     1
  122   124     1
  122   125     1
  125   126     1
  125   127     1
  125   128     1

[ pairs ]
; ai	aj	funct	c6	c12 or
; ai	aj	funct	fudgeQQ	q1	q2	c6	c12
    1     9     1
    1    15     1
    1    16     1
    1    17     1
    2     5     1
    2     7     1
    2     8     1
    2    14     1
    3     5     1
    3     7     1
    3     8     1
    3    14     1
    4     7     1
    4     8     1
    4    14     1
    5     6     1
    6    10     1
    6    11     1
    6    18     1
    7     9     1
    7    15     1
    7    16     1
    7    17     1
    8    12     1
    8    13     1
    8    15     1
    8    16     1
    8    17     1
    8    23     1
    9    14     1
    9    24     1
    9    25     1
    9    26     1
   10    12     1
   10    13     1
   10    23     1
   11    27     1
   11    28     1
   11    29     1
   12    24     1
   12    25     1
   12    26     1
   13    24     1
   13    25     1
   13    26     1
   14    19     1
   14    20     1
   15    18     1
   16    18     1
   17    21     1
   17    22     1
   17    76     1
   18    77     1
   18    78     1
   18    79     1
   19    21     1
   19    22     1
   19    76     1
   20    80     1
   20    81     1
   20    82     1
   21    77     1
   21    78     1
   21    79     1
   22    77     1
   22    78     1
   22    79     1
   23    30     1
   23    31     1
   23    32     1
   24    27     1
   24    28     1
   24    29     1
   25    27     1
   25    28     1
   25    29     1
   26    33     1
   26    34     1
   26    35     1
   27    30     1
   27    31     1
   27    32     1
   28    30     1
   28    31     1
   28    32     1
   29    36     1
   29    37     1
   29    38     1
   30    33     1
   30    34     1
   30    35     1
   31    33     1
   31    34     1
   31    35     1
   32    39     1
   32    40     1
   32    41     1
   33    36     1
   33    37     1
   33    38     1
   34    36     1
   34    37     1
   34    38     1
   35    42     1
   35    43     1
   35    44     1
   36    39     1
   36    40     1
   36    41     1
   37    39     1
   37    40     1
   37    41     1
   38    45     1
   38    46     1
   38    47     1
   39    42     1
   39    43     1
   39    44     1
   40    42     1
   40    43     1
   40    44     1
   41    48     1
   41    49     1
   42    45     1
   42    46     1
   42    47     1
   43    45     1
   43    46     1
   43    47     1
   44    50     1
   44    51     1
   45    48     1
   45    49     1
   46    48     1
   46    49     1
   47    52     1
   47    53     1
   47    54     1
   48    50     1
   48    51     1
   49    55     1
   49    56     1
   49    57     1
   50    52     1
   50    53     1
   50    54     1
   51    58     1
   51    59     1
   51    60     1
   52    55     1
   52    56     1
   52    57     1
   53    55     1
   53    56     1
   53    57     1
   54    61     1
   54    62     1
   54    63     1
   55    58     1
   55    59     1
   55    60     1
   56    58     1
   56    59     1
   56    60     1
   57    64     1
   57    65     1
   57    66     1
   58    61     1
   58    62     1
   58    63     1
   59    61     1
   59    62     1
   59    63     1
   60    67     1
   60    68     1
   60    69     1
   61    64     1
   61    65     1
   61    66     1
   62    64     1
   62    65     1
   62    66     1
   63    70     1
   63    71     1
   63    72     1
   64    67     1
   64    68     1
   64    69     1
   65    67     1
   65    68     1
   65    69     1
   66    73     1
   66    74     1
   66    75     1
   67    70     1
   67    71     1
   67    72     1
   68    70     1
   68    71     1
   68    72     1
   70    73     1
   70    74     1
   70    75     1
   71    73     1
   71    74     1
   71    75     1
   76    83     1
   76    84     1
   76    85     1
   77    80     1
   77    81     1
   77    82     1
   78    80     1
   78    81     1
   78    82     1
   79    86     1
   79    87     1
   79    88     1
   80    83     1
   80    84     1
   80    85     1
   81    83     1
   81    84     1
   81    85     1
   82    89     1
   82    90     1
   82    91     1
   83    86     1
   83    87     1
   83    88     1
   84    86     1
   84    87     1
   84    88     1
   85    92     1
   85    93     1
   85    94     1
   86    89     1
   86    90     1
   86    91     1
   87    89     1
   87    90     1
   87    91     1
   88    95     1
   88    96     1
   88    97     1
   89    92     1
   89    93     1
   89    94     1
   90    92     1
   90    93     1
   90    94     1
   91    98     1
   91    99     1
   91   100     1
   92    95     1
   92    96     1
   92    97     1
   93    95     1
   93    96     1
   93    97     1
   94   101     1
   94   102     1
   95    98     1
   95    99     1
   95   100     1
   96    98     1
   96    99     1
   96   100     1
   97   103     1
   97   104     1
   98   101     1
   98   102     1
   99   101     1
   99   102     1
  100   105     1
  100   106     1
  100   107     1
  101   103     1
  101   104     1
  102   108     1
  102   109     1
  102   110     1
  103   105     1
  103   106     1
  103   107     1
  104   111     1
  104   112     1
  104   113     1
  105   108     1
  105   109     1
  105   110     1
  106   108     1
  106   109     1
  106   110     1
  107   114     1
  107   115     1
  107   116     1
  108   111     1
  108   112     1
  108   113     1
  109   111     1
  109   112     1
  109   113     1
  110   117     1
  110   118     1
  110   119     1
  111   114     1
  111   115     1
  111   116     1
  112   114     1
  112   115     1
  112   116     1
  113   120     1
  113   121     1
  113   122     1
  114   117     1
  114   118     1
  114   119     1
  115   117     1
  115   118     1
  115   119     1
  116   123     1
  116   124     1
  116   125     1
  117   120     1
  117   121     1
  117   122     1
  118   120     1
  118   121     1
  118   122     1
  119   126     1
  119   127     1
  119   128     1
  120   123     1
  120   124     1
  120   125     1
  121   123     1
  121   124     1
  121   125     1
  123   126     1
  123   127     1
  123   128     1
  124   126     1
  124   127     1
  124   128     1

[ angles ] 
; ai	aj	ak	funct	th0	cth	S0	Kub
    2     1     3     5
    2     1     4     5
    2     1     6     5
    3     1     4     5
    3     1     6     5
    4     1     6     5
    1     4     5     5
    1     6     7     5
    1     6     8     5
    1     6    14     5
    7     6     8     5
    7     6    14     5
    8     6    14     5
    6     8     9     5
    8     9    10     5
    8     9    11     5
   10     9    11     5
    9    11    12     5
    9    11    13     5
    9    11    23     5
   12    11    13     5
   12    11    23     5
   13    11    23     5
    6    14    15     5
    6    14    16     5
    6    14    17     5
   15    14    16     5
   15    14    17     5
   16    14    17     5
   14    17    18     5
   17    18    19     5
   17    18    20     5
   19    18    20     5
   18    20    21     5
   18    20    22     5
   18    20    76     5
   21    20    22     5
   21    20    76     5
   22    20    76     5
   11    23    24     5
   11    23    25     5
   11    23    26     5
   24    23    25     5
   24    23    26     5
   25    23    26     5
   23    26    27     5
   23    26    28     5
   23    26    29     5
   27    26    28     5
   27    26    29     5
   28    26    29     5
   26    29    30     5
   26    29    31     5
   26    29    32     5
   30    29    31     5
   30    29    32     5
   31    29    32     5
   29    32    33     5
   29    32    34     5
   29    32    35     5
   33    32    34     5
   33    32    35     5
   34    32    35     5
   32    35    36     5
   32    35    37     5
   32    35    38     5
   36    35    37     5
   36    35    38     5
   37    35    38     5
   35    38    39     5
   35    38    40     5
   35    38    41     5
   39    38    40     5
   39    38    41     5
   40    38    41     5
   38    41    42     5
   38    41    43     5
   38    41    44     5
   42    41    43     5
   42    41    44     5
   43    41    44     5
   41    44    45     5
   41    44    46     5
   41    44    47     5
   45    44    46     5
   45    44    47     5
   46    44    47     5
   44    47    48     5
   44    47    49     5
   48    47    49     5
   47    49    50     5
   47    49    51     5
   50    49    51     5
   49    51    52     5
   49    51    53     5
   49    51    54     5
   52    51    53     5
   52    51    54     5
   53    51    54     5
   51    54    55     5
   51    54    56     5
   51    54    57     5
   55    54    56     5
   55    54    57     5
   56    54    57     5
   54    57    58     5
   54    57    59     5
   54    57    60     5
   58    57    59     5
   58    57    60     5
   59    57    60     5
   57    60    61     5
   57    60    62     5
   57    60    63     5
   61    60    62     5
   61    60    63     5
   62    60    63     5
   60    63    64     5
   60    63    65     5
   60    63    66     5
   64    63    65     5
   64    63    66     5
   65    63    66     5
   63    66    67     5
   63    66    68     5
   63    66    69     5
   67    66    68     5
   67    66    69     5
   68    66    69     5
   66    69    70     5
   66    69    71     5
   66    69    72     5
   70    69    71     5
   70    69    72     5
   71    69    72     5
   69    72    73     5
   69    72    74     5
   69    72    75     5
   73    72    74     5
   73    72    75     5
   74    72    75     5
   20    76    77     5
   20    76    78     5
   20    76    79     5
   77    76    78     5
   77    76    79     5
   78    76    79     5
   76    79    80     5
   76    79    81     5
   76    79    82     5
   80    79    81     5
   80    79    82     5
   81    79    82     5
   79    82    83     5
   79    82    84     5
   79    82    85     5
   83    82    84     5
   83    82    85     5
   84    82    85     5
   82    85    86     5
   82    85    87     5
   82    85    88     5
   86    85    87     5
   86    85    88     5
   87    85    88     5
   85    88    89     5
   85    88    90     5
   85    88    91     5
   89    88    90     5
   89    88    91     5
   90    88    91     5
   88    91    92     5
   88    91    93     5
   88    91    94     5
   92    91    93     5
   92    91    94     5
   93    91    94     5
   91    94    95     5
   91    94    96     5
   91    94    97     5
   95    94    96     5
   95    94    97     5
   96    94    97     5
   94    97    98     5
   94    97    99     5
   94    97   100     5
   98    97    99     5
   98    97   100     5
   99    97   100     5
   97   100   101     5
   97   100   102     5
  101   100   102     5
  100   102   103     5
  100   102   104     5
  103   102   104     5
  102   104   105     5
  102   104   106     5
  102   104   107     5
  105   104   106     5
  105   104   107     5
  106   104   107     5
  104   107   108     5
  104   107   109     5
  104   107   110     5
  108   107   109     5
  108   107   110     5
  109   107   110     5
  107   110   111     5
  107   110   112     5
  107   110   113     5
  111   110   112     5
  111   110   113     5
  112   110   113     5
  110   113   114     5
  110   113   115     5
  110   113   116     5
  114   113   115     5
  114   113   116     5
  115   113   116     5
  113   116   117     5
  113   116   118     5
  113   116   119     5
  117   116   118     5
  117   116   119     5
  118   116   119     5
  116   119   120     5
  116   119   121     5
  116   119   122     5
  120   119   121     5
  120   119   122     5
  121   119   122     5
  119   122   123     5
  119   122   124     5
  119   122   125     5
  123   122   124     5
  123   122   125     5
  124   122   125     5
  122   125   126     5
  122   125   127     5
  122   125   128     5
  126   125   127     5
  126   125   128     5
  127   125   128     5

[ dihedrals ]
; ai	aj	ak	al	funct	phi0	cp	mult
    2     1     4     5     9
    3     1     4     5     9
    2     1     6     7     9
    2     1     6     8     9
    2     1     6    14     9
    3     1     6     7     9
    3     1     6     8     9
    3     1     6    14     9
    4     1     6     7     9
    4     1     6     8     9
    4     1     6    14     9
    5     4     1     6     9
    1     6     8     9     9
    7     6     8     9     9
    1     6    14    15     9
    1     6    14    16     9
    1     6    14    17     9
    7     6    14    15     9
    7     6    14    16     9
    7     6    14    17     9
    8     6    14    15     9
    8     6    14    16     9
    8     6    14    17     9
    9     8     6    14     9
    6     8     9    10     9
    6     8     9    11     9
    8     9    11    12     9
    8     9    11    13     9
    8     9    11    23     9
   10     9    11    12     9
   10     9    11    13     9
   10     9    11    23     9
    9    11    23    24     9
    9    11    23    25     9
    9    11    23    26     9
   12    11    23    24     9
   12    11    23    25     9
   12    11    23    26     9
   13    11    23    24     9
   13    11    23    25     9
   13    11    23    26     9
    6    14    17    18     9
   15    14    17    18     9
   16    14    17    18     9
   14    17    18    19     9
   14    17    18    20     9
   17    18    20    21     9
   17    18    20    22     9
   17    18    20    76     9
   19    18    20    21     9
   19    18    20    22     9
   19    18    20    76     9
   18    20    76    77     9
   18    20    76    78     9
   18    20    76    79     9
   21    20    76    77     9
   21    20    76    78     9
   21    20    76    79     9
   22    20    76    77     9
   22    20    76    78     9
   22    20    76    79     9
   11    23    26    27     9
   11    23    26    28     9
   11    23    26    29     9
   24    23    26    27     9
   24    23    26    28     9
   24    23    26    29     9
   25    23    26    27     9
   25    23    26    28     9
   25    23    26    29     9
   23    26    29    30     9
   23    26    29    31     9
   23    26    29    32     9
   27    26    29    30     9
   27    26    29    31     9
   27    26    29    32     9
   28    26    29    30     9
   28    26    29    31     9
   28    26    29    32     9
   26    29    32    33     9
   26    29    32    34     9
   26    29    32    35     9
   30    29    32    33     9
   30    29    32    34     9
   30    29    32    35     9
   31    29    32    33     9
   31    29    32    34     9
   31    29    32    35     9
   29    32    35    36     9
   29    32    35    37     9
   29    32    35    38     9
   33    32    35    36     9
   33    32    35    37     9
   33    32    35    38     9
   34    32    35    36     9
   34    32    35    37     9
   34    32    35    38     9
   32    35    38    39     9
   32    35    38    40     9
   32    35    38    41     9
   36    35    38    39     9
   36    35    38    40     9
   36    35    38    41     9
   37    35    38    39     9
   37    35    38    40     9
   37    35    38    41     9
   35    38    41    42     9
   35    38    41    43     9
   35    38    41    44     9
   39    38    41    42     9
   39    38    41    43     9
   39    38    41    44     9
   40    38    41    42     9
   40    38    41    43     9
   40    38    41    44     9
   38    41    44    45     9
   38    41    44    46     9
   38    41    44    47     9
   42    41    44    45     9
   42    41    44    46     9
   42    41    44    47     9
   43    41    44    45     9
   43    41    44    46     9
   43    41    44    47     9
   41    44    47    48     9
   41    44    47    49     9
   45    44    47    48     9
   45    44    47    49     9
   46    44    47    48     9
   46    44    47    49     9
   44    47    49    50     9
   44    47    49    51     9
   48    47    49    50     9
   48    47    49    51     9
   47    49    51    52     9
   47    49    51    53     9
   47    49    51    54     9
   50    49    51    52     9
   50    49    51    53     9
   50    49    51    54     9
   49    51    54    55     9
   49    51    54    56     9
   49    51    54    57     9
   52    51    54    55     9
   52    51    54    56     9
   52    51    54    57     9
   53    51    54    55     9
   53    51    54    56     9
   53    51    54    57     9
   51    54    57    58     9
   51    54    57    59     9
   51    54    57    60     9
   55    54    57    58     9
   55    54    57    59     9
   55    54    57    60     9
   56    54    57    58     9
   56    54    57    59     9
   56    54    57    60     9
   54    57    60    61     9
   54    57    60    62     9
   54    57    60    63     9
   58    57    60    61     9
   58    57    60    62     9
   58    57    60    63     9
   59    57    60    61     9
   59    57    60    62     9
   59    57    60    63     9
   57    60    63    64     9
   57    60    63    65     9
   57    60    63    66     9
   61    60    63    64     9
   61    60    63    65     9
   61    60    63    66     9
   62    60    63    64     9
   62    60    63    65     9
   62    60    63    66     9
   60    63    66    67     9
   60    63    66    68     9
   60    63    66    69     9
   64    63    66    67     9
   64    63    66    68     9
   64    63    66    69     9
   65    63    66    67     9
   65    63    66    68     9
   65    63    66    69     9
   63    66    69    70     9
   63    66    69    71     9
   63    66    69    72     9
   67    66    69    70     9
   67    66    69    71     9
   67    66    69    72     9
   68    66    69    70     9
   68    66    69    71     9
   68    66    69    72     9
   66    69    72    73     9
   66    69    72    74     9
   66    69    72    75     9
   70    69    72    73     9
   70    69    72    74     9
   70    69    72    75     9
   71    69    72    73     9
   71    69    72    74     9
   71    69    72    75     9
   20    76    79    80     9
   20    76    79    81     9
   20    76    79    82     9
   77    76    79    80     9
   77    76    79    81     9
   77    76    79    82     9
   78    76    79    80     9
   78    76    79    81     9
   78    76    79    82     9
   76    79    82    83     9
   76    79    82    84     9
   76    79    82    85     9
   80    79    82    83     9
   80    79    82    84     9
   80    79    82    85     9
   81    79    82    83     9
   81    79    82    84     9
   81    79    82    85     9
   79    82    85    86     9
   79    82    85    87     9
   79    82    85    88     9
   83    82    85    86     9
   83    82    85    87     9
   83    82    85    88     9
   84    82    85    86     9
   84    82    85    87     9
   84    82    85    88     9
   82    85    88    89     9
   82    85    88    90     9
   82    85    88    91     9
   86    85    88    89     9
   86    85    88    90     9
   86    85    88    91     9
   87    85    88    89     9
   87    85    88    90     9
   87    85    88    91     9
   85    88    91    92     9
   85    88    91    93     9
   85    88    91    94     9
   89    88    91    92     9
   89    88    91    93     9
   89    88    91    94     9
   90    88    91    92     9
   90    88    91    93     9
   90    88    91    94     9
   88    91    94    95     9
   88    91    94    96     9
   88    91    94    97     9
   92    91    94    95     9
   92    91    94    96     9
   92    91    94    97     9
   93    91    94    95     9
   93    91    94    96     9
   93    91    94    97     9
   91    94    97    98     9
   91    94    97    99     9
   91    94    97   100     9
   95    94    97    98     9
   95    94    97    99     9
   95    94    97   100     9
   96    94    97    98     9
   96    94    97    99     9
   96    94    97   100     9
   94    97   100   101     9
   94    97   100   102     9
   98    97   100   101     9
   98    97   100   102     9
   99    97   100   101     9
   99    97   100   102     9
   97   100   102   103     9
   97   100   102   104     9
  101   100   102   103     9
  101   100   102   104     9
  100   102   104   105     9
  100   102   104   106     9
  100   102   104   107     9
  103   102   104   105     9
  103   102   104   106     9
  103   102   104   107     9
  102   104   107   108     9
  102   104   107   109     9
  102   104   107   110     9
  105   104   107   108     9
  105   104   107   109     9
  105   104   107   110     9
  106   104   107   108     9
  106   104   107   109     9
  106   104   107   110     9
  104   107   110   111     9
  104   107   110   112     9
  104   107   110   113     9
  108   107   110   111     9
  108   107   110   112     9
  108   107   110   113     9
  109   107   110   111     9
  109   107   110   112     9
  109   107   110   113     9
  107   110   113   114     9
  107   110   113   115     9
  107   110   113   116     9
  111   110   113   114     9
  111   110   113   115     9
  111   110   113   116     9
  112   110   113   114     9
  112   110   113   115     9
  112   110   113   116     9
  110   113   116   117     9
  110   113   116   118     9
  110   113   116   119     9
  114   113   116   117     9
  114   113   116   118     9
  114   113   116   119     9
  115   113   116   117     9
  115   113   116   118     9
  115   113   116   119     9
  113   116   119   120     9
  113   116   119   121     9
  113   116   119   122     9
  117   116   119   120     9
  117   116   119   121     9
  117   116   119   122     9
  118   116   119   120     9
  118   116   119   121     9
  118   116   119   122     9
  116   119   122   123     9
  116   119   122   124     9
  116   119   122   125     9
  120   119   122   123     9
  120   119   122   124     9
  120   119   122   125     9
  121   119   122   123     9
  121   119   122   124     9
  121   119   122   125     9
  119   122   125   126     9
  119   122   125   127     9
  119   122   125   128     9
  123   122   125   126     9
  123   122   125   127     9
  123   122   125   128     9
  124   122   125   126     9
  124   122   125   127     9
  124   122   125   128     9

[ dihedrals ]
; ai	aj	ak	al	funct	q0	cq
    9     8    11    10     2
   18    17    20    19     2

#ifdef POSRES
[ position_restraints ]
    4     1     0.0             0.0            POSRES_FC_LIPID
#endif

#ifdef DIHRES
[ dihedral_restraints ]
    1    14     6     8     1   -120.0      2.5       DIHRES_FC
   44    47    49    51     1      0.0      0.0       DIHRES_FC
   97   100   102   104     1      0.0      0.0       DIHRES_FC
#endif
