;;
;; Generated by CHARMM-GUI FF-Converter
;;
;; Correspondance:
;; jul316@lehigh.edu or wonpil@lehigh.edu
;;
;; GROMACS topology file for DLGL
;;


[ moleculetype ]
; name	nrexcl
DLGL	     3

[ atoms ]
; nr	type	resnr	residu	atom	cgnr	charge	mass
     1       CTL2     50     DLGL     C1      1     0.050000    12.0110   ; qtot  0.050
     2       HAL2     50     DLGL     HA      2     0.090000     1.0080   ; qtot  0.140
     3       HAL2     50     DLGL     HB      3     0.090000     1.0080   ; qtot  0.230
     4        OHL     50     DLGL    O11      4    -0.650000    15.9994   ; qtot -0.420
     5        HOL     50     DLGL    HO1      5     0.420000     1.0080   ; qtot -0.000
     6       CTL1     50     DLGL     C2      6     0.170000    12.0110   ; qtot  0.170
     7       HAL1     50     DLGL     HS      7     0.090000     1.0080   ; qtot  0.260
     8        OSL     50     DLGL    O21      8    -0.490000    15.9994   ; qtot -0.230
     9         CL     50     DLGL    C21      9     0.900000    12.0110   ; qtot  0.670
    10        OBL     50     DLGL    O22     10    -0.630000    15.9994   ; qtot  0.040
    11       CTL2     50     DLGL    C22     11    -0.220000    12.0110   ; qtot -0.180
    12       HAL2     50     DLGL    H2R     12     0.090000     1.0080   ; qtot -0.090
    13       HAL2     50     DLGL    H2S     13     0.090000     1.0080   ; qtot -0.000
    14       CTL2     50     DLGL     C3     14     0.080000    12.0110   ; qtot  0.080
    15       HAL2     50     DLGL     HX     15     0.090000     1.0080   ; qtot  0.170
    16       HAL2     50     DLGL     HY     16     0.090000     1.0080   ; qtot  0.260
    17        OSL     50     DLGL    O31     17    -0.490000    15.9994   ; qtot -0.230
    18         CL     50     DLGL    C31     18     0.900000    12.0110   ; qtot  0.670
    19        OBL     50     DLGL    O32     19    -0.630000    15.9994   ; qtot  0.040
    20       CTL2     50     DLGL    C32     20    -0.220000    12.0110   ; qtot -0.180
    21       HAL2     50     DLGL    H2X     21     0.090000     1.0080   ; qtot -0.090
    22       HAL2     50     DLGL    H2Y     22     0.090000     1.0080   ; qtot -0.000
    23       CTL2     50     DLGL    C23     23    -0.180000    12.0110   ; qtot -0.180
    24       HAL2     50     DLGL    H3R     24     0.090000     1.0080   ; qtot -0.090
    25       HAL2     50     DLGL    H3S     25     0.090000     1.0080   ; qtot -0.000
    26       CTL2     50     DLGL    C24     26    -0.180000    12.0110   ; qtot -0.180
    27       HAL2     50     DLGL    H4R     27     0.090000     1.0080   ; qtot -0.090
    28       HAL2     50     DLGL    H4S     28     0.090000     1.0080   ; qtot -0.000
    29       CTL2     50     DLGL    C25     29    -0.180000    12.0110   ; qtot -0.180
    30       HAL2     50     DLGL    H5R     30     0.090000     1.0080   ; qtot -0.090
    31       HAL2     50     DLGL    H5S     31     0.090000     1.0080   ; qtot -0.000
    32       CTL2     50     DLGL    C26     32    -0.180000    12.0110   ; qtot -0.180
    33       HAL2     50     DLGL    H6R     33     0.090000     1.0080   ; qtot -0.090
    34       HAL2     50     DLGL    H6S     34     0.090000     1.0080   ; qtot -0.000
    35       CTL2     50     DLGL    C27     35    -0.180000    12.0110   ; qtot -0.180
    36       HAL2     50     DLGL    H7R     36     0.090000     1.0080   ; qtot -0.090
    37       HAL2     50     DLGL    H7S     37     0.090000     1.0080   ; qtot -0.000
    38       CTL2     50     DLGL    C28     38    -0.180000    12.0110   ; qtot -0.180
    39       HAL2     50     DLGL    H8R     39     0.090000     1.0080   ; qtot -0.090
    40       HAL2     50     DLGL    H8S     40     0.090000     1.0080   ; qtot -0.000
    41       CTL2     50     DLGL    C29     41    -0.180000    12.0110   ; qtot -0.180
    42       HAL2     50     DLGL    H9R     42     0.090000     1.0080   ; qtot -0.090
    43       HAL2     50     DLGL    H9S     43     0.090000     1.0080   ; qtot -0.000
    44       CTL2     50     DLGL   C210     44    -0.180000    12.0110   ; qtot -0.180
    45       HAL2     50     DLGL   H10R     45     0.090000     1.0080   ; qtot -0.090
    46       HAL2     50     DLGL   H10S     46     0.090000     1.0080   ; qtot -0.000
    47       CTL2     50     DLGL   C211     47    -0.180000    12.0110   ; qtot -0.180
    48       HAL2     50     DLGL   H11R     48     0.090000     1.0080   ; qtot -0.090
    49       HAL2     50     DLGL   H11S     49     0.090000     1.0080   ; qtot -0.000
    50       CTL3     50     DLGL   C212     50    -0.270000    12.0110   ; qtot -0.270
    51       HAL3     50     DLGL   H12R     51     0.090000     1.0080   ; qtot -0.180
    52       HAL3     50     DLGL   H12S     52     0.090000     1.0080   ; qtot -0.090
    53       HAL3     50     DLGL   H12T     53     0.090000     1.0080   ; qtot -0.000
    54       CTL2     50     DLGL    C33     54    -0.180000    12.0110   ; qtot -0.180
    55       HAL2     50     DLGL    H3X     55     0.090000     1.0080   ; qtot -0.090
    56       HAL2     50     DLGL    H3Y     56     0.090000     1.0080   ; qtot -0.000
    57       CTL2     50     DLGL    C34     57    -0.180000    12.0110   ; qtot -0.180
    58       HAL2     50     DLGL    H4X     58     0.090000     1.0080   ; qtot -0.090
    59       HAL2     50     DLGL    H4Y     59     0.090000     1.0080   ; qtot -0.000
    60       CTL2     50     DLGL    C35     60    -0.180000    12.0110   ; qtot -0.180
    61       HAL2     50     DLGL    H5X     61     0.090000     1.0080   ; qtot -0.090
    62       HAL2     50     DLGL    H5Y     62     0.090000     1.0080   ; qtot -0.000
    63       CTL2     50     DLGL    C36     63    -0.180000    12.0110   ; qtot -0.180
    64       HAL2     50     DLGL    H6X     64     0.090000     1.0080   ; qtot -0.090
    65       HAL2     50     DLGL    H6Y     65     0.090000     1.0080   ; qtot -0.000
    66       CTL2     50     DLGL    C37     66    -0.180000    12.0110   ; qtot -0.180
    67       HAL2     50     DLGL    H7X     67     0.090000     1.0080   ; qtot -0.090
    68       HAL2     50     DLGL    H7Y     68     0.090000     1.0080   ; qtot -0.000
    69       CTL2     50     DLGL    C38     69    -0.180000    12.0110   ; qtot -0.180
    70       HAL2     50     DLGL    H8X     70     0.090000     1.0080   ; qtot -0.090
    71       HAL2     50     DLGL    H8Y     71     0.090000     1.0080   ; qtot -0.000
    72       CTL2     50     DLGL    C39     72    -0.180000    12.0110   ; qtot -0.180
    73       HAL2     50     DLGL    H9X     73     0.090000     1.0080   ; qtot -0.090
    74       HAL2     50     DLGL    H9Y     74     0.090000     1.0080   ; qtot -0.000
    75       CTL2     50     DLGL   C310     75    -0.180000    12.0110   ; qtot -0.180
    76       HAL2     50     DLGL   H10X     76     0.090000     1.0080   ; qtot -0.090
    77       HAL2     50     DLGL   H10Y     77     0.090000     1.0080   ; qtot -0.000
    78       CTL2     50     DLGL   C311     78    -0.180000    12.0110   ; qtot -0.180
    79       HAL2     50     DLGL   H11X     79     0.090000     1.0080   ; qtot -0.090
    80       HAL2     50     DLGL   H11Y     80     0.090000     1.0080   ; qtot -0.000
    81       CTL3     50     DLGL   C312     81    -0.270000    12.0110   ; qtot -0.270
    82       HAL3     50     DLGL   H12X     82     0.090000     1.0080   ; qtot -0.180
    83       HAL3     50     DLGL   H12Y     83     0.090000     1.0080   ; qtot -0.090
    84       HAL3     50     DLGL   H12Z     84     0.090000     1.0080   ; qtot -0.000

[ bonds ]
; ai	aj	funct	b0	Kb
    1     2     1
    1     3     1
    1     4     1
    1     6     1
    4     5     1
    6     7     1
    6     8     1
    6    14     1
    8     9     1
    9    10     1
    9    11     1
   11    12     1
   11    13     1
   11    23     1
   14    15     1
   14    16     1
   14    17     1
   17    18     1
   18    19     1
   18    20     1
   20    21     1
   20    22     1
   20    54     1
   23    24     1
   23    25     1
   23    26     1
   26    27     1
   26    28     1
   26    29     1
   29    30     1
   29    31     1
   29    32     1
   32    33     1
   32    34     1
   32    35     1
   35    36     1
   35    37     1
   35    38     1
   38    39     1
   38    40     1
   38    41     1
   41    42     1
   41    43     1
   41    44     1
   44    45     1
   44    46     1
   44    47     1
   47    48     1
   47    49     1
   47    50     1
   50    51     1
   50    52     1
   50    53     1
   54    55     1
   54    56     1
   54    57     1
   57    58     1
   57    59     1
   57    60     1
   60    61     1
   60    62     1
   60    63     1
   63    64     1
   63    65     1
   63    66     1
   66    67     1
   66    68     1
   66    69     1
   69    70     1
   69    71     1
   69    72     1
   72    73     1
   72    74     1
   72    75     1
   75    76     1
   75    77     1
   75    78     1
   78    79     1
   78    80     1
   78    81     1
   81    82     1
   81    83     1
   81    84     1

[ pairs ]
; ai	aj	funct	c6	c12 or
; ai	aj	funct	fudgeQQ	q1	q2	c6	c12
    1     9     1
    1    15     1
    1    16     1
    1    17     1
    2     5     1
    2     7     1
    2     8     1
    2    14     1
    3     5     1
    3     7     1
    3     8     1
    3    14     1
    4     7     1
    4     8     1
    4    14     1
    5     6     1
    6    10     1
    6    11     1
    6    18     1
    7     9     1
    7    15     1
    7    16     1
    7    17     1
    8    12     1
    8    13     1
    8    15     1
    8    16     1
    8    17     1
    8    23     1
    9    14     1
    9    24     1
    9    25     1
    9    26     1
   10    12     1
   10    13     1
   10    23     1
   11    27     1
   11    28     1
   11    29     1
   12    24     1
   12    25     1
   12    26     1
   13    24     1
   13    25     1
   13    26     1
   14    19     1
   14    20     1
   15    18     1
   16    18     1
   17    21     1
   17    22     1
   17    54     1
   18    55     1
   18    56     1
   18    57     1
   19    21     1
   19    22     1
   19    54     1
   20    58     1
   20    59     1
   20    60     1
   21    55     1
   21    56     1
   21    57     1
   22    55     1
   22    56     1
   22    57     1
   23    30     1
   23    31     1
   23    32     1
   24    27     1
   24    28     1
   24    29     1
   25    27     1
   25    28     1
   25    29     1
   26    33     1
   26    34     1
   26    35     1
   27    30     1
   27    31     1
   27    32     1
   28    30     1
   28    31     1
   28    32     1
   29    36     1
   29    37     1
   29    38     1
   30    33     1
   30    34     1
   30    35     1
   31    33     1
   31    34     1
   31    35     1
   32    39     1
   32    40     1
   32    41     1
   33    36     1
   33    37     1
   33    38     1
   34    36     1
   34    37     1
   34    38     1
   35    42     1
   35    43     1
   35    44     1
   36    39     1
   36    40     1
   36    41     1
   37    39     1
   37    40     1
   37    41     1
   38    45     1
   38    46     1
   38    47     1
   39    42     1
   39    43     1
   39    44     1
   40    42     1
   40    43     1
   40    44     1
   41    48     1
   41    49     1
   41    50     1
   42    45     1
   42    46     1
   42    47     1
   43    45     1
   43    46     1
   43    47     1
   44    51     1
   44    52     1
   44    53     1
   45    48     1
   45    49     1
   45    50     1
   46    48     1
   46    49     1
   46    50     1
   48    51     1
   48    52     1
   48    53     1
   49    51     1
   49    52     1
   49    53     1
   54    61     1
   54    62     1
   54    63     1
   55    58     1
   55    59     1
   55    60     1
   56    58     1
   56    59     1
   56    60     1
   57    64     1
   57    65     1
   57    66     1
   58    61     1
   58    62     1
   58    63     1
   59    61     1
   59    62     1
   59    63     1
   60    67     1
   60    68     1
   60    69     1
   61    64     1
   61    65     1
   61    66     1
   62    64     1
   62    65     1
   62    66     1
   63    70     1
   63    71     1
   63    72     1
   64    67     1
   64    68     1
   64    69     1
   65    67     1
   65    68     1
   65    69     1
   66    73     1
   66    74     1
   66    75     1
   67    70     1
   67    71     1
   67    72     1
   68    70     1
   68    71     1
   68    72     1
   69    76     1
   69    77     1
   69    78     1
   70    73     1
   70    74     1
   70    75     1
   71    73     1
   71    74     1
   71    75     1
   72    79     1
   72    80     1
   72    81     1
   73    76     1
   73    77     1
   73    78     1
   74    76     1
   74    77     1
   74    78     1
   75    82     1
   75    83     1
   75    84     1
   76    79     1
   76    80     1
   76    81     1
   77    79     1
   77    80     1
   77    81     1
   79    82     1
   79    83     1
   79    84     1
   80    82     1
   80    83     1
   80    84     1

[ angles ] 
; ai	aj	ak	funct	th0	cth	S0	Kub
    2     1     3     5
    2     1     4     5
    2     1     6     5
    3     1     4     5
    3     1     6     5
    4     1     6     5
    1     4     5     5
    1     6     7     5
    1     6     8     5
    1     6    14     5
    7     6     8     5
    7     6    14     5
    8     6    14     5
    6     8     9     5
    8     9    10     5
    8     9    11     5
   10     9    11     5
    9    11    12     5
    9    11    13     5
    9    11    23     5
   12    11    13     5
   12    11    23     5
   13    11    23     5
    6    14    15     5
    6    14    16     5
    6    14    17     5
   15    14    16     5
   15    14    17     5
   16    14    17     5
   14    17    18     5
   17    18    19     5
   17    18    20     5
   19    18    20     5
   18    20    21     5
   18    20    22     5
   18    20    54     5
   21    20    22     5
   21    20    54     5
   22    20    54     5
   11    23    24     5
   11    23    25     5
   11    23    26     5
   24    23    25     5
   24    23    26     5
   25    23    26     5
   23    26    27     5
   23    26    28     5
   23    26    29     5
   27    26    28     5
   27    26    29     5
   28    26    29     5
   26    29    30     5
   26    29    31     5
   26    29    32     5
   30    29    31     5
   30    29    32     5
   31    29    32     5
   29    32    33     5
   29    32    34     5
   29    32    35     5
   33    32    34     5
   33    32    35     5
   34    32    35     5
   32    35    36     5
   32    35    37     5
   32    35    38     5
   36    35    37     5
   36    35    38     5
   37    35    38     5
   35    38    39     5
   35    38    40     5
   35    38    41     5
   39    38    40     5
   39    38    41     5
   40    38    41     5
   38    41    42     5
   38    41    43     5
   38    41    44     5
   42    41    43     5
   42    41    44     5
   43    41    44     5
   41    44    45     5
   41    44    46     5
   41    44    47     5
   45    44    46     5
   45    44    47     5
   46    44    47     5
   44    47    48     5
   44    47    49     5
   44    47    50     5
   48    47    49     5
   48    47    50     5
   49    47    50     5
   47    50    51     5
   47    50    52     5
   47    50    53     5
   51    50    52     5
   51    50    53     5
   52    50    53     5
   20    54    55     5
   20    54    56     5
   20    54    57     5
   55    54    56     5
   55    54    57     5
   56    54    57     5
   54    57    58     5
   54    57    59     5
   54    57    60     5
   58    57    59     5
   58    57    60     5
   59    57    60     5
   57    60    61     5
   57    60    62     5
   57    60    63     5
   61    60    62     5
   61    60    63     5
   62    60    63     5
   60    63    64     5
   60    63    65     5
   60    63    66     5
   64    63    65     5
   64    63    66     5
   65    63    66     5
   63    66    67     5
   63    66    68     5
   63    66    69     5
   67    66    68     5
   67    66    69     5
   68    66    69     5
   66    69    70     5
   66    69    71     5
   66    69    72     5
   70    69    71     5
   70    69    72     5
   71    69    72     5
   69    72    73     5
   69    72    74     5
   69    72    75     5
   73    72    74     5
   73    72    75     5
   74    72    75     5
   72    75    76     5
   72    75    77     5
   72    75    78     5
   76    75    77     5
   76    75    78     5
   77    75    78     5
   75    78    79     5
   75    78    80     5
   75    78    81     5
   79    78    80     5
   79    78    81     5
   80    78    81     5
   78    81    82     5
   78    81    83     5
   78    81    84     5
   82    81    83     5
   82    81    84     5
   83    81    84     5

[ dihedrals ]
; ai	aj	ak	al	funct	phi0	cp	mult
    2     1     4     5     9
    3     1     4     5     9
    2     1     6     7     9
    2     1     6     8     9
    2     1     6    14     9
    3     1     6     7     9
    3     1     6     8     9
    3     1     6    14     9
    4     1     6     7     9
    4     1     6     8     9
    4     1     6    14     9
    5     4     1     6     9
    1     6     8     9     9
    7     6     8     9     9
    1     6    14    15     9
    1     6    14    16     9
    1     6    14    17     9
    7     6    14    15     9
    7     6    14    16     9
    7     6    14    17     9
    8     6    14    15     9
    8     6    14    16     9
    8     6    14    17     9
    9     8     6    14     9
    6     8     9    10     9
    6     8     9    11     9
    8     9    11    12     9
    8     9    11    13     9
    8     9    11    23     9
   10     9    11    12     9
   10     9    11    13     9
   10     9    11    23     9
    9    11    23    24     9
    9    11    23    25     9
    9    11    23    26     9
   12    11    23    24     9
   12    11    23    25     9
   12    11    23    26     9
   13    11    23    24     9
   13    11    23    25     9
   13    11    23    26     9
    6    14    17    18     9
   15    14    17    18     9
   16    14    17    18     9
   14    17    18    19     9
   14    17    18    20     9
   17    18    20    21     9
   17    18    20    22     9
   17    18    20    54     9
   19    18    20    21     9
   19    18    20    22     9
   19    18    20    54     9
   18    20    54    55     9
   18    20    54    56     9
   18    20    54    57     9
   21    20    54    55     9
   21    20    54    56     9
   21    20    54    57     9
   22    20    54    55     9
   22    20    54    56     9
   22    20    54    57     9
   11    23    26    27     9
   11    23    26    28     9
   11    23    26    29     9
   24    23    26    27     9
   24    23    26    28     9
   24    23    26    29     9
   25    23    26    27     9
   25    23    26    28     9
   25    23    26    29     9
   23    26    29    30     9
   23    26    29    31     9
   23    26    29    32     9
   27    26    29    30     9
   27    26    29    31     9
   27    26    29    32     9
   28    26    29    30     9
   28    26    29    31     9
   28    26    29    32     9
   26    29    32    33     9
   26    29    32    34     9
   26    29    32    35     9
   30    29    32    33     9
   30    29    32    34     9
   30    29    32    35     9
   31    29    32    33     9
   31    29    32    34     9
   31    29    32    35     9
   29    32    35    36     9
   29    32    35    37     9
   29    32    35    38     9
   33    32    35    36     9
   33    32    35    37     9
   33    32    35    38     9
   34    32    35    36     9
   34    32    35    37     9
   34    32    35    38     9
   32    35    38    39     9
   32    35    38    40     9
   32    35    38    41     9
   36    35    38    39     9
   36    35    38    40     9
   36    35    38    41     9
   37    35    38    39     9
   37    35    38    40     9
   37    35    38    41     9
   35    38    41    42     9
   35    38    41    43     9
   35    38    41    44     9
   39    38    41    42     9
   39    38    41    43     9
   39    38    41    44     9
   40    38    41    42     9
   40    38    41    43     9
   40    38    41    44     9
   38    41    44    45     9
   38    41    44    46     9
   38    41    44    47     9
   42    41    44    45     9
   42    41    44    46     9
   42    41    44    47     9
   43    41    44    45     9
   43    41    44    46     9
   43    41    44    47     9
   41    44    47    48     9
   41    44    47    49     9
   41    44    47    50     9
   45    44    47    48     9
   45    44    47    49     9
   45    44    47    50     9
   46    44    47    48     9
   46    44    47    49     9
   46    44    47    50     9
   44    47    50    51     9
   44    47    50    52     9
   44    47    50    53     9
   48    47    50    51     9
   48    47    50    52     9
   48    47    50    53     9
   49    47    50    51     9
   49    47    50    52     9
   49    47    50    53     9
   20    54    57    58     9
   20    54    57    59     9
   20    54    57    60     9
   55    54    57    58     9
   55    54    57    59     9
   55    54    57    60     9
   56    54    57    58     9
   56    54    57    59     9
   56    54    57    60     9
   54    57    60    61     9
   54    57    60    62     9
   54    57    60    63     9
   58    57    60    61     9
   58    57    60    62     9
   58    57    60    63     9
   59    57    60    61     9
   59    57    60    62     9
   59    57    60    63     9
   57    60    63    64     9
   57    60    63    65     9
   57    60    63    66     9
   61    60    63    64     9
   61    60    63    65     9
   61    60    63    66     9
   62    60    63    64     9
   62    60    63    65     9
   62    60    63    66     9
   60    63    66    67     9
   60    63    66    68     9
   60    63    66    69     9
   64    63    66    67     9
   64    63    66    68     9
   64    63    66    69     9
   65    63    66    67     9
   65    63    66    68     9
   65    63    66    69     9
   63    66    69    70     9
   63    66    69    71     9
   63    66    69    72     9
   67    66    69    70     9
   67    66    69    71     9
   67    66    69    72     9
   68    66    69    70     9
   68    66    69    71     9
   68    66    69    72     9
   66    69    72    73     9
   66    69    72    74     9
   66    69    72    75     9
   70    69    72    73     9
   70    69    72    74     9
   70    69    72    75     9
   71    69    72    73     9
   71    69    72    74     9
   71    69    72    75     9
   69    72    75    76     9
   69    72    75    77     9
   69    72    75    78     9
   73    72    75    76     9
   73    72    75    77     9
   73    72    75    78     9
   74    72    75    76     9
   74    72    75    77     9
   74    72    75    78     9
   72    75    78    79     9
   72    75    78    80     9
   72    75    78    81     9
   76    75    78    79     9
   76    75    78    80     9
   76    75    78    81     9
   77    75    78    79     9
   77    75    78    80     9
   77    75    78    81     9
   75    78    81    82     9
   75    78    81    83     9
   75    78    81    84     9
   79    78    81    82     9
   79    78    81    83     9
   79    78    81    84     9
   80    78    81    82     9
   80    78    81    83     9
   80    78    81    84     9

[ dihedrals ]
; ai	aj	ak	al	funct	q0	cq
    9     8    11    10     2
   18    17    20    19     2

#ifdef POSRES
[ position_restraints ]
    4     1     0.0             0.0            POSRES_FC_LIPID
#endif

#ifdef DIHRES
[ dihedral_restraints ]
    1    14     6     8     1   -120.0      2.5       DIHRES_FC
#endif
