;;
;; Generated by CHARMM-GUI FF-Converter
;;
;; Correspondance:
;; jul316@lehigh.edu or wonpil@lehigh.edu
;;
;; GROMACS topology file for DLKC1
;;


[ moleculetype ]
; name	nrexcl
DLKC1	     3

[ atoms ]
; nr	type	resnr	residu	atom	cgnr	charge	mass
     1      NG301    177    DLKC1     N1      1    -0.630000    14.0070   ; qtot -0.630
     2     CG3AM0    177    DLKC1    CN1      2    -0.060000    12.0110   ; qtot -0.690
     3     HGAAM0    177    DLKC1   HN11      3     0.090000     1.0080   ; qtot -0.600
     4     HGAAM0    177    DLKC1   HN12      4     0.090000     1.0080   ; qtot -0.510
     5     HGAAM0    177    DLKC1   HN13      5     0.090000     1.0080   ; qtot -0.420
     6     CG3AM0    177    DLKC1    CN2      6    -0.060000    12.0110   ; qtot -0.480
     7     HGAAM0    177    DLKC1   HN21      7     0.090000     1.0080   ; qtot -0.390
     8     HGAAM0    177    DLKC1   HN22      8     0.090000     1.0080   ; qtot -0.300
     9     HGAAM0    177    DLKC1   HN23      9     0.090000     1.0080   ; qtot -0.210
    10      CG321    177    DLKC1     C1     10     0.030000    12.0110   ; qtot -0.180
    11       HGA2    177    DLKC1    H11     11     0.090000     1.0080   ; qtot -0.090
    12       HGA2    177    DLKC1    H12     12     0.090000     1.0080   ; qtot -0.000
    13     OG3C51    177    DLKC1     O1     13    -0.400000    15.9994   ; qtot -0.400
    14     OG3C51    177    DLKC1     O2     14    -0.400000    15.9994   ; qtot -0.800
    15     CG3C51    177    DLKC1     C2     15     0.050000    12.0110   ; qtot -0.750
    16       HGA1    177    DLKC1    H21     16     0.090000     1.0080   ; qtot -0.660
    17     CG3C52    177    DLKC1     C3     17     0.050000    12.0110   ; qtot -0.610
    18       HGA2    177    DLKC1    H31     18     0.090000     1.0080   ; qtot -0.520
    19       HGA2    177    DLKC1    H32     19     0.090000     1.0080   ; qtot -0.430
    20     CG3C50    177    DLKC1     C4     20     0.430000    12.0110   ; qtot -0.000
    21       CTL2    177    DLKC1    C11     21    -0.180000    12.0110   ; qtot -0.180
    22       HAL2    177    DLKC1   H11R     22     0.090000     1.0080   ; qtot -0.090
    23       HAL2    177    DLKC1   H11S     23     0.090000     1.0080   ; qtot -0.000
    24       CTL2    177    DLKC1    C12     24    -0.180000    12.0110   ; qtot -0.180
    25       HAL2    177    DLKC1   H12R     25     0.090000     1.0080   ; qtot -0.090
    26       HAL2    177    DLKC1   H12S     26     0.090000     1.0080   ; qtot -0.000
    27       CTL2    177    DLKC1    C13     27    -0.180000    12.0110   ; qtot -0.180
    28       HAL2    177    DLKC1   H13R     28     0.090000     1.0080   ; qtot -0.090
    29       HAL2    177    DLKC1   H13S     29     0.090000     1.0080   ; qtot -0.000
    30       CTL2    177    DLKC1    C14     30    -0.180000    12.0110   ; qtot -0.180
    31       HAL2    177    DLKC1   H14R     31     0.090000     1.0080   ; qtot -0.090
    32       HAL2    177    DLKC1   H14S     32     0.090000     1.0080   ; qtot -0.000
    33       CTL2    177    DLKC1    C15     33    -0.180000    12.0110   ; qtot -0.180
    34       HAL2    177    DLKC1   H15R     34     0.090000     1.0080   ; qtot -0.090
    35       HAL2    177    DLKC1   H15S     35     0.090000     1.0080   ; qtot -0.000
    36       CTL2    177    DLKC1    C16     36    -0.180000    12.0110   ; qtot -0.180
    37       HAL2    177    DLKC1   H16R     37     0.090000     1.0080   ; qtot -0.090
    38       HAL2    177    DLKC1   H16S     38     0.090000     1.0080   ; qtot -0.000
    39       CTL2    177    DLKC1    C17     39    -0.180000    12.0110   ; qtot -0.180
    40       HAL2    177    DLKC1   H17R     40     0.090000     1.0080   ; qtot -0.090
    41       HAL2    177    DLKC1   H17S     41     0.090000     1.0080   ; qtot -0.000
    42       CTL2    177    DLKC1    C18     42    -0.180000    12.0110   ; qtot -0.180
    43       HAL2    177    DLKC1   H18R     43     0.090000     1.0080   ; qtot -0.090
    44       HAL2    177    DLKC1   H18S     44     0.090000     1.0080   ; qtot -0.000
    45       CEL1    177    DLKC1    C19     45    -0.150000    12.0110   ; qtot -0.150
    46       HEL1    177    DLKC1   H19R     46     0.150000     1.0080   ; qtot -0.000
    47       CEL1    177    DLKC1   C110     47    -0.150000    12.0110   ; qtot -0.150
    48       HEL1    177    DLKC1  H110R     48     0.150000     1.0080   ; qtot -0.000
    49       CTL2    177    DLKC1   C111     49    -0.180000    12.0110   ; qtot -0.180
    50       HAL2    177    DLKC1  H111R     50     0.090000     1.0080   ; qtot -0.090
    51       HAL2    177    DLKC1  H111S     51     0.090000     1.0080   ; qtot -0.000
    52       CEL1    177    DLKC1   C112     52    -0.150000    12.0110   ; qtot -0.150
    53       HEL1    177    DLKC1  H112R     53     0.150000     1.0080   ; qtot -0.000
    54       CEL1    177    DLKC1   C113     54    -0.150000    12.0110   ; qtot -0.150
    55       HEL1    177    DLKC1  H113R     55     0.150000     1.0080   ; qtot -0.000
    56       CTL2    177    DLKC1   C114     56    -0.180000    12.0110   ; qtot -0.180
    57       HAL2    177    DLKC1  H114R     57     0.090000     1.0080   ; qtot -0.090
    58       HAL2    177    DLKC1  H114S     58     0.090000     1.0080   ; qtot -0.000
    59       CTL2    177    DLKC1   C115     59    -0.180000    12.0110   ; qtot -0.180
    60       HAL2    177    DLKC1  H115R     60     0.090000     1.0080   ; qtot -0.090
    61       HAL2    177    DLKC1  H115S     61     0.090000     1.0080   ; qtot -0.000
    62       CTL2    177    DLKC1   C116     62    -0.180000    12.0110   ; qtot -0.180
    63       HAL2    177    DLKC1  H116R     63     0.090000     1.0080   ; qtot -0.090
    64       HAL2    177    DLKC1  H116S     64     0.090000     1.0080   ; qtot -0.000
    65       CTL2    177    DLKC1   C117     65    -0.180000    12.0110   ; qtot -0.180
    66       HAL2    177    DLKC1  H117R     66     0.090000     1.0080   ; qtot -0.090
    67       HAL2    177    DLKC1  H117S     67     0.090000     1.0080   ; qtot -0.000
    68       CTL3    177    DLKC1   C118     68    -0.270000    12.0110   ; qtot -0.270
    69       HAL3    177    DLKC1  H118R     69     0.090000     1.0080   ; qtot -0.180
    70       HAL3    177    DLKC1  H118S     70     0.090000     1.0080   ; qtot -0.090
    71       HAL3    177    DLKC1  H118T     71     0.090000     1.0080   ; qtot -0.000
    72       CTL2    177    DLKC1    C21     72    -0.180000    12.0110   ; qtot -0.180
    73       HAL2    177    DLKC1   H21R     73     0.090000     1.0080   ; qtot -0.090
    74       HAL2    177    DLKC1   H21S     74     0.090000     1.0080   ; qtot -0.000
    75       CTL2    177    DLKC1    C22     75    -0.180000    12.0110   ; qtot -0.180
    76       HAL2    177    DLKC1   H22R     76     0.090000     1.0080   ; qtot -0.090
    77       HAL2    177    DLKC1   H22S     77     0.090000     1.0080   ; qtot -0.000
    78       CTL2    177    DLKC1    C23     78    -0.180000    12.0110   ; qtot -0.180
    79       HAL2    177    DLKC1   H23R     79     0.090000     1.0080   ; qtot -0.090
    80       HAL2    177    DLKC1   H23S     80     0.090000     1.0080   ; qtot -0.000
    81       CTL2    177    DLKC1    C24     81    -0.180000    12.0110   ; qtot -0.180
    82       HAL2    177    DLKC1   H24R     82     0.090000     1.0080   ; qtot -0.090
    83       HAL2    177    DLKC1   H24S     83     0.090000     1.0080   ; qtot -0.000
    84       CTL2    177    DLKC1    C25     84    -0.180000    12.0110   ; qtot -0.180
    85       HAL2    177    DLKC1   H25R     85     0.090000     1.0080   ; qtot -0.090
    86       HAL2    177    DLKC1   H25S     86     0.090000     1.0080   ; qtot -0.000
    87       CTL2    177    DLKC1    C26     87    -0.180000    12.0110   ; qtot -0.180
    88       HAL2    177    DLKC1   H26R     88     0.090000     1.0080   ; qtot -0.090
    89       HAL2    177    DLKC1   H26S     89     0.090000     1.0080   ; qtot -0.000
    90       CTL2    177    DLKC1    C27     90    -0.180000    12.0110   ; qtot -0.180
    91       HAL2    177    DLKC1   H27R     91     0.090000     1.0080   ; qtot -0.090
    92       HAL2    177    DLKC1   H27S     92     0.090000     1.0080   ; qtot -0.000
    93       CTL2    177    DLKC1    C28     93    -0.180000    12.0110   ; qtot -0.180
    94       HAL2    177    DLKC1   H28R     94     0.090000     1.0080   ; qtot -0.090
    95       HAL2    177    DLKC1   H28S     95     0.090000     1.0080   ; qtot -0.000
    96       CEL1    177    DLKC1    C29     96    -0.150000    12.0110   ; qtot -0.150
    97       HEL1    177    DLKC1   H29R     97     0.150000     1.0080   ; qtot -0.000
    98       CEL1    177    DLKC1   C210     98    -0.150000    12.0110   ; qtot -0.150
    99       HEL1    177    DLKC1  H210R     99     0.150000     1.0080   ; qtot -0.000
   100       CTL2    177    DLKC1   C211    100    -0.180000    12.0110   ; qtot -0.180
   101       HAL2    177    DLKC1  H211R    101     0.090000     1.0080   ; qtot -0.090
   102       HAL2    177    DLKC1  H211S    102     0.090000     1.0080   ; qtot -0.000
   103       CEL1    177    DLKC1   C212    103    -0.150000    12.0110   ; qtot -0.150
   104       HEL1    177    DLKC1  H212R    104     0.150000     1.0080   ; qtot -0.000
   105       CEL1    177    DLKC1   C213    105    -0.150000    12.0110   ; qtot -0.150
   106       HEL1    177    DLKC1  H213R    106     0.150000     1.0080   ; qtot -0.000
   107       CTL2    177    DLKC1   C214    107    -0.180000    12.0110   ; qtot -0.180
   108       HAL2    177    DLKC1  H214R    108     0.090000     1.0080   ; qtot -0.090
   109       HAL2    177    DLKC1  H214S    109     0.090000     1.0080   ; qtot -0.000
   110       CTL2    177    DLKC1   C215    110    -0.180000    12.0110   ; qtot -0.180
   111       HAL2    177    DLKC1  H215R    111     0.090000     1.0080   ; qtot -0.090
   112       HAL2    177    DLKC1  H215S    112     0.090000     1.0080   ; qtot -0.000
   113       CTL2    177    DLKC1   C216    113    -0.180000    12.0110   ; qtot -0.180
   114       HAL2    177    DLKC1  H216R    114     0.090000     1.0080   ; qtot -0.090
   115       HAL2    177    DLKC1  H216S    115     0.090000     1.0080   ; qtot -0.000
   116       CTL2    177    DLKC1   C217    116    -0.180000    12.0110   ; qtot -0.180
   117       HAL2    177    DLKC1  H217R    117     0.090000     1.0080   ; qtot -0.090
   118       HAL2    177    DLKC1  H217S    118     0.090000     1.0080   ; qtot -0.000
   119       CTL3    177    DLKC1   C218    119    -0.270000    12.0110   ; qtot -0.270
   120       HAL3    177    DLKC1  H218R    120     0.090000     1.0080   ; qtot -0.180
   121       HAL3    177    DLKC1  H218S    121     0.090000     1.0080   ; qtot -0.090
   122       HAL3    177    DLKC1  H218T    122     0.090000     1.0080   ; qtot -0.000

[ bonds ]
; ai	aj	funct	b0	Kb
    1     2     1
    1     6     1
    1    10     1
    2     3     1
    2     4     1
    2     5     1
    6     7     1
    6     8     1
    6     9     1
   10    11     1
   10    12     1
   10    15     1
   15    13     1
   13    20     1
   14    17     1
   20    14     1
   15    16     1
   15    17     1
   17    18     1
   17    19     1
   20    21     1
   20    72     1
   21    22     1
   21    23     1
   21    24     1
   24    25     1
   24    26     1
   24    27     1
   27    28     1
   27    29     1
   27    30     1
   30    31     1
   30    32     1
   30    33     1
   33    34     1
   33    35     1
   33    36     1
   36    37     1
   36    38     1
   36    39     1
   39    40     1
   39    41     1
   39    42     1
   42    43     1
   42    44     1
   42    45     1
   45    46     1
   45    47     1
   47    48     1
   47    49     1
   49    50     1
   49    51     1
   49    52     1
   52    53     1
   52    54     1
   54    55     1
   54    56     1
   56    57     1
   56    58     1
   56    59     1
   59    60     1
   59    61     1
   59    62     1
   62    63     1
   62    64     1
   62    65     1
   65    66     1
   65    67     1
   65    68     1
   68    69     1
   68    70     1
   68    71     1
   72    73     1
   72    74     1
   72    75     1
   75    76     1
   75    77     1
   75    78     1
   78    79     1
   78    80     1
   78    81     1
   81    82     1
   81    83     1
   81    84     1
   84    85     1
   84    86     1
   84    87     1
   87    88     1
   87    89     1
   87    90     1
   90    91     1
   90    92     1
   90    93     1
   93    94     1
   93    95     1
   93    96     1
   96    97     1
   96    98     1
   98    99     1
   98   100     1
  100   101     1
  100   102     1
  100   103     1
  103   104     1
  103   105     1
  105   106     1
  105   107     1
  107   108     1
  107   109     1
  107   110     1
  110   111     1
  110   112     1
  110   113     1
  113   114     1
  113   115     1
  113   116     1
  116   117     1
  116   118     1
  116   119     1
  119   120     1
  119   121     1
  119   122     1

[ pairs ]
; ai	aj	funct	c6	c12 or
; ai	aj	funct	fudgeQQ	q1	q2	c6	c12
    1    13     1
    1    16     1
    1    17     1
    2     7     1
    2     8     1
    2     9     1
    2    11     1
    2    12     1
    2    15     1
    3     6     1
    3    10     1
    4     6     1
    4    10     1
    5     6     1
    5    10     1
    6    11     1
    6    12     1
    6    15     1
    7    10     1
    8    10     1
    9    10     1
   10    14     1
   10    18     1
   10    19     1
   10    20     1
   11    13     1
   11    16     1
   11    17     1
   12    13     1
   12    16     1
   12    17     1
   13    18     1
   13    19     1
   13    22     1
   13    23     1
   13    24     1
   13    73     1
   13    74     1
   13    75     1
   14    16     1
   14    22     1
   14    23     1
   14    24     1
   14    73     1
   14    74     1
   14    75     1
   15    21     1
   15    72     1
   16    18     1
   16    19     1
   16    20     1
   17    21     1
   17    72     1
   18    20     1
   19    20     1
   20    25     1
   20    26     1
   20    27     1
   20    76     1
   20    77     1
   20    78     1
   21    28     1
   21    29     1
   21    30     1
   21    73     1
   21    74     1
   21    75     1
   22    25     1
   22    26     1
   22    27     1
   22    72     1
   23    25     1
   23    26     1
   23    27     1
   23    72     1
   24    31     1
   24    32     1
   24    33     1
   24    72     1
   25    28     1
   25    29     1
   25    30     1
   26    28     1
   26    29     1
   26    30     1
   27    34     1
   27    35     1
   27    36     1
   28    31     1
   28    32     1
   28    33     1
   29    31     1
   29    32     1
   29    33     1
   30    37     1
   30    38     1
   30    39     1
   31    34     1
   31    35     1
   31    36     1
   32    34     1
   32    35     1
   32    36     1
   33    40     1
   33    41     1
   33    42     1
   34    37     1
   34    38     1
   34    39     1
   35    37     1
   35    38     1
   35    39     1
   36    43     1
   36    44     1
   36    45     1
   37    40     1
   37    41     1
   37    42     1
   38    40     1
   38    41     1
   38    42     1
   39    46     1
   39    47     1
   40    43     1
   40    44     1
   40    45     1
   41    43     1
   41    44     1
   41    45     1
   42    48     1
   42    49     1
   43    46     1
   43    47     1
   44    46     1
   44    47     1
   45    50     1
   45    51     1
   45    52     1
   46    48     1
   46    49     1
   47    53     1
   47    54     1
   48    50     1
   48    51     1
   48    52     1
   49    55     1
   49    56     1
   50    53     1
   50    54     1
   51    53     1
   51    54     1
   52    57     1
   52    58     1
   52    59     1
   53    55     1
   53    56     1
   54    60     1
   54    61     1
   54    62     1
   55    57     1
   55    58     1
   55    59     1
   56    63     1
   56    64     1
   56    65     1
   57    60     1
   57    61     1
   57    62     1
   58    60     1
   58    61     1
   58    62     1
   59    66     1
   59    67     1
   59    68     1
   60    63     1
   60    64     1
   60    65     1
   61    63     1
   61    64     1
   61    65     1
   62    69     1
   62    70     1
   62    71     1
   63    66     1
   63    67     1
   63    68     1
   64    66     1
   64    67     1
   64    68     1
   66    69     1
   66    70     1
   66    71     1
   67    69     1
   67    70     1
   67    71     1
   72    79     1
   72    80     1
   72    81     1
   73    76     1
   73    77     1
   73    78     1
   74    76     1
   74    77     1
   74    78     1
   75    82     1
   75    83     1
   75    84     1
   76    79     1
   76    80     1
   76    81     1
   77    79     1
   77    80     1
   77    81     1
   78    85     1
   78    86     1
   78    87     1
   79    82     1
   79    83     1
   79    84     1
   80    82     1
   80    83     1
   80    84     1
   81    88     1
   81    89     1
   81    90     1
   82    85     1
   82    86     1
   82    87     1
   83    85     1
   83    86     1
   83    87     1
   84    91     1
   84    92     1
   84    93     1
   85    88     1
   85    89     1
   85    90     1
   86    88     1
   86    89     1
   86    90     1
   87    94     1
   87    95     1
   87    96     1
   88    91     1
   88    92     1
   88    93     1
   89    91     1
   89    92     1
   89    93     1
   90    97     1
   90    98     1
   91    94     1
   91    95     1
   91    96     1
   92    94     1
   92    95     1
   92    96     1
   93    99     1
   93   100     1
   94    97     1
   94    98     1
   95    97     1
   95    98     1
   96   101     1
   96   102     1
   96   103     1
   97    99     1
   97   100     1
   98   104     1
   98   105     1
   99   101     1
   99   102     1
   99   103     1
  100   106     1
  100   107     1
  101   104     1
  101   105     1
  102   104     1
  102   105     1
  103   108     1
  103   109     1
  103   110     1
  104   106     1
  104   107     1
  105   111     1
  105   112     1
  105   113     1
  106   108     1
  106   109     1
  106   110     1
  107   114     1
  107   115     1
  107   116     1
  108   111     1
  108   112     1
  108   113     1
  109   111     1
  109   112     1
  109   113     1
  110   117     1
  110   118     1
  110   119     1
  111   114     1
  111   115     1
  111   116     1
  112   114     1
  112   115     1
  112   116     1
  113   120     1
  113   121     1
  113   122     1
  114   117     1
  114   118     1
  114   119     1
  115   117     1
  115   118     1
  115   119     1
  117   120     1
  117   121     1
  117   122     1
  118   120     1
  118   121     1
  118   122     1

[ angles ] 
; ai	aj	ak	funct	th0	cth	S0	Kub
    2     1     6     5
    2     1    10     5
    6     1    10     5
    1     2     3     5
    1     2     4     5
    1     2     5     5
    3     2     4     5
    3     2     5     5
    4     2     5     5
    1     6     7     5
    1     6     8     5
    1     6     9     5
    7     6     8     5
    7     6     9     5
    8     6     9     5
    1    10    11     5
    1    10    12     5
    1    10    15     5
   11    10    12     5
   11    10    15     5
   12    10    15     5
   15    13    20     5
   17    14    20     5
   10    15    13     5
   10    15    16     5
   10    15    17     5
   13    15    16     5
   13    15    17     5
   16    15    17     5
   14    17    15     5
   14    17    18     5
   14    17    19     5
   15    17    18     5
   15    17    19     5
   18    17    19     5
   13    20    14     5
   13    20    21     5
   13    20    72     5
   14    20    21     5
   14    20    72     5
   21    20    72     5
   20    21    22     5
   20    21    23     5
   20    21    24     5
   22    21    23     5
   22    21    24     5
   23    21    24     5
   21    24    25     5
   21    24    26     5
   21    24    27     5
   25    24    26     5
   25    24    27     5
   26    24    27     5
   24    27    28     5
   24    27    29     5
   24    27    30     5
   28    27    29     5
   28    27    30     5
   29    27    30     5
   27    30    31     5
   27    30    32     5
   27    30    33     5
   31    30    32     5
   31    30    33     5
   32    30    33     5
   30    33    34     5
   30    33    35     5
   30    33    36     5
   34    33    35     5
   34    33    36     5
   35    33    36     5
   33    36    37     5
   33    36    38     5
   33    36    39     5
   37    36    38     5
   37    36    39     5
   38    36    39     5
   36    39    40     5
   36    39    41     5
   36    39    42     5
   40    39    41     5
   40    39    42     5
   41    39    42     5
   39    42    43     5
   39    42    44     5
   39    42    45     5
   43    42    44     5
   43    42    45     5
   44    42    45     5
   42    45    46     5
   42    45    47     5
   46    45    47     5
   45    47    48     5
   45    47    49     5
   48    47    49     5
   47    49    50     5
   47    49    51     5
   47    49    52     5
   50    49    51     5
   50    49    52     5
   51    49    52     5
   49    52    53     5
   49    52    54     5
   53    52    54     5
   52    54    55     5
   52    54    56     5
   55    54    56     5
   54    56    57     5
   54    56    58     5
   54    56    59     5
   57    56    58     5
   57    56    59     5
   58    56    59     5
   56    59    60     5
   56    59    61     5
   56    59    62     5
   60    59    61     5
   60    59    62     5
   61    59    62     5
   59    62    63     5
   59    62    64     5
   59    62    65     5
   63    62    64     5
   63    62    65     5
   64    62    65     5
   62    65    66     5
   62    65    67     5
   62    65    68     5
   66    65    67     5
   66    65    68     5
   67    65    68     5
   65    68    69     5
   65    68    70     5
   65    68    71     5
   69    68    70     5
   69    68    71     5
   70    68    71     5
   20    72    73     5
   20    72    74     5
   20    72    75     5
   73    72    74     5
   73    72    75     5
   74    72    75     5
   72    75    76     5
   72    75    77     5
   72    75    78     5
   76    75    77     5
   76    75    78     5
   77    75    78     5
   75    78    79     5
   75    78    80     5
   75    78    81     5
   79    78    80     5
   79    78    81     5
   80    78    81     5
   78    81    82     5
   78    81    83     5
   78    81    84     5
   82    81    83     5
   82    81    84     5
   83    81    84     5
   81    84    85     5
   81    84    86     5
   81    84    87     5
   85    84    86     5
   85    84    87     5
   86    84    87     5
   84    87    88     5
   84    87    89     5
   84    87    90     5
   88    87    89     5
   88    87    90     5
   89    87    90     5
   87    90    91     5
   87    90    92     5
   87    90    93     5
   91    90    92     5
   91    90    93     5
   92    90    93     5
   90    93    94     5
   90    93    95     5
   90    93    96     5
   94    93    95     5
   94    93    96     5
   95    93    96     5
   93    96    97     5
   93    96    98     5
   97    96    98     5
   96    98    99     5
   96    98   100     5
   99    98   100     5
   98   100   101     5
   98   100   102     5
   98   100   103     5
  101   100   102     5
  101   100   103     5
  102   100   103     5
  100   103   104     5
  100   103   105     5
  104   103   105     5
  103   105   106     5
  103   105   107     5
  106   105   107     5
  105   107   108     5
  105   107   109     5
  105   107   110     5
  108   107   109     5
  108   107   110     5
  109   107   110     5
  107   110   111     5
  107   110   112     5
  107   110   113     5
  111   110   112     5
  111   110   113     5
  112   110   113     5
  110   113   114     5
  110   113   115     5
  110   113   116     5
  114   113   115     5
  114   113   116     5
  115   113   116     5
  113   116   117     5
  113   116   118     5
  113   116   119     5
  117   116   118     5
  117   116   119     5
  118   116   119     5
  116   119   120     5
  116   119   121     5
  116   119   122     5
  120   119   121     5
  120   119   122     5
  121   119   122     5

[ dihedrals ]
; ai	aj	ak	al	funct	phi0	cp	mult
    2     1     6     7     9
    2     1     6     8     9
    2     1     6     9     9
    2     1    10    11     9
    2     1    10    12     9
    2     1    10    15     9
    6     1    10    11     9
    6     1    10    12     9
    6     1    10    15     9
    3     2     1     6     9
    3     2     1    10     9
    4     2     1     6     9
    4     2     1    10     9
    5     2     1     6     9
    5     2     1    10     9
    7     6     1    10     9
    8     6     1    10     9
    9     6     1    10     9
    1    10    15    13     9
    1    10    15    16     9
    1    10    15    17     9
   11    10    15    13     9
   11    10    15    16     9
   11    10    15    17     9
   12    10    15    13     9
   12    10    15    16     9
   12    10    15    17     9
   15    13    20    21     9
   15    13    20    72     9
   17    14    20    21     9
   17    14    20    72     9
   10    15    13    20     9
   16    15    13    20     9
   17    15    13    20     9
   10    15    17    14     9
   10    15    17    18     9
   10    15    17    19     9
   13    15    17    14     9
   13    15    17    18     9
   13    15    17    19     9
   16    15    17    18     9
   16    15    17    19     9
   15    17    14    20     9
   18    17    14    20     9
   19    17    14    20     9
   14    17    15    16     9
   14    20    13    15     9
   13    20    14    17     9
   13    20    21    22     9
   13    20    21    23     9
   13    20    21    24     9
   14    20    21    22     9
   14    20    21    23     9
   14    20    21    24     9
   13    20    72    73     9
   13    20    72    74     9
   13    20    72    75     9
   14    20    72    73     9
   14    20    72    74     9
   14    20    72    75     9
   21    20    72    73     9
   21    20    72    74     9
   21    20    72    75     9
   22    21    20    72     9
   23    21    20    72     9
   24    21    20    72     9
   20    21    24    25     9
   20    21    24    26     9
   20    21    24    27     9
   22    21    24    25     9
   22    21    24    26     9
   22    21    24    27     9
   23    21    24    25     9
   23    21    24    26     9
   23    21    24    27     9
   21    24    27    28     9
   21    24    27    29     9
   21    24    27    30     9
   25    24    27    28     9
   25    24    27    29     9
   25    24    27    30     9
   26    24    27    28     9
   26    24    27    29     9
   26    24    27    30     9
   24    27    30    31     9
   24    27    30    32     9
   24    27    30    33     9
   28    27    30    31     9
   28    27    30    32     9
   28    27    30    33     9
   29    27    30    31     9
   29    27    30    32     9
   29    27    30    33     9
   27    30    33    34     9
   27    30    33    35     9
   27    30    33    36     9
   31    30    33    34     9
   31    30    33    35     9
   31    30    33    36     9
   32    30    33    34     9
   32    30    33    35     9
   32    30    33    36     9
   30    33    36    37     9
   30    33    36    38     9
   30    33    36    39     9
   34    33    36    37     9
   34    33    36    38     9
   34    33    36    39     9
   35    33    36    37     9
   35    33    36    38     9
   35    33    36    39     9
   33    36    39    40     9
   33    36    39    41     9
   33    36    39    42     9
   37    36    39    40     9
   37    36    39    41     9
   37    36    39    42     9
   38    36    39    40     9
   38    36    39    41     9
   38    36    39    42     9
   36    39    42    43     9
   36    39    42    44     9
   36    39    42    45     9
   40    39    42    43     9
   40    39    42    44     9
   40    39    42    45     9
   41    39    42    43     9
   41    39    42    44     9
   41    39    42    45     9
   39    42    45    46     9
   39    42    45    47     9
   43    42    45    46     9
   43    42    45    47     9
   44    42    45    46     9
   44    42    45    47     9
   42    45    47    48     9
   42    45    47    49     9
   46    45    47    48     9
   46    45    47    49     9
   45    47    49    50     9
   45    47    49    51     9
   45    47    49    52     9
   48    47    49    50     9
   48    47    49    51     9
   48    47    49    52     9
   47    49    52    53     9
   47    49    52    54     9
   50    49    52    53     9
   50    49    52    54     9
   51    49    52    53     9
   51    49    52    54     9
   49    52    54    55     9
   49    52    54    56     9
   53    52    54    55     9
   53    52    54    56     9
   52    54    56    57     9
   52    54    56    58     9
   52    54    56    59     9
   55    54    56    57     9
   55    54    56    58     9
   55    54    56    59     9
   54    56    59    60     9
   54    56    59    61     9
   54    56    59    62     9
   57    56    59    60     9
   57    56    59    61     9
   57    56    59    62     9
   58    56    59    60     9
   58    56    59    61     9
   58    56    59    62     9
   56    59    62    63     9
   56    59    62    64     9
   56    59    62    65     9
   60    59    62    63     9
   60    59    62    64     9
   60    59    62    65     9
   61    59    62    63     9
   61    59    62    64     9
   61    59    62    65     9
   59    62    65    66     9
   59    62    65    67     9
   59    62    65    68     9
   63    62    65    66     9
   63    62    65    67     9
   63    62    65    68     9
   64    62    65    66     9
   64    62    65    67     9
   64    62    65    68     9
   62    65    68    69     9
   62    65    68    70     9
   62    65    68    71     9
   66    65    68    69     9
   66    65    68    70     9
   66    65    68    71     9
   67    65    68    69     9
   67    65    68    70     9
   67    65    68    71     9
   20    72    75    76     9
   20    72    75    77     9
   20    72    75    78     9
   73    72    75    76     9
   73    72    75    77     9
   73    72    75    78     9
   74    72    75    76     9
   74    72    75    77     9
   74    72    75    78     9
   72    75    78    79     9
   72    75    78    80     9
   72    75    78    81     9
   76    75    78    79     9
   76    75    78    80     9
   76    75    78    81     9
   77    75    78    79     9
   77    75    78    80     9
   77    75    78    81     9
   75    78    81    82     9
   75    78    81    83     9
   75    78    81    84     9
   79    78    81    82     9
   79    78    81    83     9
   79    78    81    84     9
   80    78    81    82     9
   80    78    81    83     9
   80    78    81    84     9
   78    81    84    85     9
   78    81    84    86     9
   78    81    84    87     9
   82    81    84    85     9
   82    81    84    86     9
   82    81    84    87     9
   83    81    84    85     9
   83    81    84    86     9
   83    81    84    87     9
   81    84    87    88     9
   81    84    87    89     9
   81    84    87    90     9
   85    84    87    88     9
   85    84    87    89     9
   85    84    87    90     9
   86    84    87    88     9
   86    84    87    89     9
   86    84    87    90     9
   84    87    90    91     9
   84    87    90    92     9
   84    87    90    93     9
   88    87    90    91     9
   88    87    90    92     9
   88    87    90    93     9
   89    87    90    91     9
   89    87    90    92     9
   89    87    90    93     9
   87    90    93    94     9
   87    90    93    95     9
   87    90    93    96     9
   91    90    93    94     9
   91    90    93    95     9
   91    90    93    96     9
   92    90    93    94     9
   92    90    93    95     9
   92    90    93    96     9
   90    93    96    97     9
   90    93    96    98     9
   94    93    96    97     9
   94    93    96    98     9
   95    93    96    97     9
   95    93    96    98     9
   93    96    98    99     9
   93    96    98   100     9
   97    96    98    99     9
   97    96    98   100     9
   96    98   100   101     9
   96    98   100   102     9
   96    98   100   103     9
   99    98   100   101     9
   99    98   100   102     9
   99    98   100   103     9
   98   100   103   104     9
   98   100   103   105     9
  101   100   103   104     9
  101   100   103   105     9
  102   100   103   104     9
  102   100   103   105     9
  100   103   105   106     9
  100   103   105   107     9
  104   103   105   106     9
  104   103   105   107     9
  103   105   107   108     9
  103   105   107   109     9
  103   105   107   110     9
  106   105   107   108     9
  106   105   107   109     9
  106   105   107   110     9
  105   107   110   111     9
  105   107   110   112     9
  105   107   110   113     9
  108   107   110   111     9
  108   107   110   112     9
  108   107   110   113     9
  109   107   110   111     9
  109   107   110   112     9
  109   107   110   113     9
  107   110   113   114     9
  107   110   113   115     9
  107   110   113   116     9
  111   110   113   114     9
  111   110   113   115     9
  111   110   113   116     9
  112   110   113   114     9
  112   110   113   115     9
  112   110   113   116     9
  110   113   116   117     9
  110   113   116   118     9
  110   113   116   119     9
  114   113   116   117     9
  114   113   116   118     9
  114   113   116   119     9
  115   113   116   117     9
  115   113   116   118     9
  115   113   116   119     9
  113   116   119   120     9
  113   116   119   121     9
  113   116   119   122     9
  117   116   119   120     9
  117   116   119   121     9
  117   116   119   122     9
  118   116   119   120     9
  118   116   119   121     9
  118   116   119   122     9

#ifdef POSRES
[ position_restraints ]
    1     1     0.0             0.0            POSRES_FC_LIPID
#endif

#ifdef DIHRES
[ dihedral_restraints ]
   42    45    47    49     1      0.0      0.0       DIHRES_FC
   49    52    54    56     1      0.0      0.0       DIHRES_FC
   93    96    98   100     1      0.0      0.0       DIHRES_FC
  100   103   105   107     1      0.0      0.0       DIHRES_FC
#endif
