;;
;; Generated by CHARMM-GUI FF-Converter
;;
;; Correspondance:
;; jul316@lehigh.edu or wonpil@lehigh.edu
;;
;; GROMACS topology file for DLKC1H
;;


[ moleculetype ]
; name	nrexcl
DLKC1H	     3

[ atoms ]
; nr	type	resnr	residu	atom	cgnr	charge	mass
     1      NG3P1    182   DLKC1H     N1      1    -0.565000    14.0070   ; qtot -0.565
     2       HGP2    182   DLKC1H    HN4      2     0.320000     1.0080   ; qtot -0.245
     3      CG334    182   DLKC1H    CN1      3     0.145000    12.0110   ; qtot -0.100
     4       HGA3    182   DLKC1H   HN11      4     0.090000     1.0080   ; qtot -0.010
     5       HGA3    182   DLKC1H   HN12      5     0.090000     1.0080   ; qtot  0.080
     6       HGA3    182   DLKC1H   HN13      6     0.090000     1.0080   ; qtot  0.170
     7      CG334    182   DLKC1H    CN2      7     0.145000    12.0110   ; qtot  0.315
     8       HGA3    182   DLKC1H   HN21      8     0.090000     1.0080   ; qtot  0.405
     9       HGA3    182   DLKC1H   HN22      9     0.090000     1.0080   ; qtot  0.495
    10       HGA3    182   DLKC1H   HN23     10     0.090000     1.0080   ; qtot  0.585
    11      CG324    182   DLKC1H     C1     11     0.235000    12.0110   ; qtot  0.820
    12       HGA2    182   DLKC1H    H11     12     0.090000     1.0080   ; qtot  0.910
    13       HGA2    182   DLKC1H    H12     13     0.090000     1.0080   ; qtot  1.000
    14     OG3C51    182   DLKC1H     O1     14    -0.400000    15.9994   ; qtot  0.600
    15     OG3C51    182   DLKC1H     O2     15    -0.400000    15.9994   ; qtot  0.200
    16     CG3C51    182   DLKC1H     C2     16     0.050000    12.0110   ; qtot  0.250
    17       HGA1    182   DLKC1H    H21     17     0.090000     1.0080   ; qtot  0.340
    18     CG3C52    182   DLKC1H     C3     18     0.050000    12.0110   ; qtot  0.390
    19       HGA2    182   DLKC1H    H31     19     0.090000     1.0080   ; qtot  0.480
    20       HGA2    182   DLKC1H    H32     20     0.090000     1.0080   ; qtot  0.570
    21     CG3C50    182   DLKC1H     C4     21     0.430000    12.0110   ; qtot  1.000
    22       CTL2    182   DLKC1H    C11     22    -0.180000    12.0110   ; qtot  0.820
    23       HAL2    182   DLKC1H   H11R     23     0.090000     1.0080   ; qtot  0.910
    24       HAL2    182   DLKC1H   H11S     24     0.090000     1.0080   ; qtot  1.000
    25       CTL2    182   DLKC1H    C12     25    -0.180000    12.0110   ; qtot  0.820
    26       HAL2    182   DLKC1H   H12R     26     0.090000     1.0080   ; qtot  0.910
    27       HAL2    182   DLKC1H   H12S     27     0.090000     1.0080   ; qtot  1.000
    28       CTL2    182   DLKC1H    C13     28    -0.180000    12.0110   ; qtot  0.820
    29       HAL2    182   DLKC1H   H13R     29     0.090000     1.0080   ; qtot  0.910
    30       HAL2    182   DLKC1H   H13S     30     0.090000     1.0080   ; qtot  1.000
    31       CTL2    182   DLKC1H    C14     31    -0.180000    12.0110   ; qtot  0.820
    32       HAL2    182   DLKC1H   H14R     32     0.090000     1.0080   ; qtot  0.910
    33       HAL2    182   DLKC1H   H14S     33     0.090000     1.0080   ; qtot  1.000
    34       CTL2    182   DLKC1H    C15     34    -0.180000    12.0110   ; qtot  0.820
    35       HAL2    182   DLKC1H   H15R     35     0.090000     1.0080   ; qtot  0.910
    36       HAL2    182   DLKC1H   H15S     36     0.090000     1.0080   ; qtot  1.000
    37       CTL2    182   DLKC1H    C16     37    -0.180000    12.0110   ; qtot  0.820
    38       HAL2    182   DLKC1H   H16R     38     0.090000     1.0080   ; qtot  0.910
    39       HAL2    182   DLKC1H   H16S     39     0.090000     1.0080   ; qtot  1.000
    40       CTL2    182   DLKC1H    C17     40    -0.180000    12.0110   ; qtot  0.820
    41       HAL2    182   DLKC1H   H17R     41     0.090000     1.0080   ; qtot  0.910
    42       HAL2    182   DLKC1H   H17S     42     0.090000     1.0080   ; qtot  1.000
    43       CTL2    182   DLKC1H    C18     43    -0.180000    12.0110   ; qtot  0.820
    44       HAL2    182   DLKC1H   H18R     44     0.090000     1.0080   ; qtot  0.910
    45       HAL2    182   DLKC1H   H18S     45     0.090000     1.0080   ; qtot  1.000
    46       CEL1    182   DLKC1H    C19     46    -0.150000    12.0110   ; qtot  0.850
    47       HEL1    182   DLKC1H   H19R     47     0.150000     1.0080   ; qtot  1.000
    48       CEL1    182   DLKC1H   C110     48    -0.150000    12.0110   ; qtot  0.850
    49       HEL1    182   DLKC1H  H110R     49     0.150000     1.0080   ; qtot  1.000
    50       CTL2    182   DLKC1H   C111     50    -0.180000    12.0110   ; qtot  0.820
    51       HAL2    182   DLKC1H  H111R     51     0.090000     1.0080   ; qtot  0.910
    52       HAL2    182   DLKC1H  H111S     52     0.090000     1.0080   ; qtot  1.000
    53       CEL1    182   DLKC1H   C112     53    -0.150000    12.0110   ; qtot  0.850
    54       HEL1    182   DLKC1H  H112R     54     0.150000     1.0080   ; qtot  1.000
    55       CEL1    182   DLKC1H   C113     55    -0.150000    12.0110   ; qtot  0.850
    56       HEL1    182   DLKC1H  H113R     56     0.150000     1.0080   ; qtot  1.000
    57       CTL2    182   DLKC1H   C114     57    -0.180000    12.0110   ; qtot  0.820
    58       HAL2    182   DLKC1H  H114R     58     0.090000     1.0080   ; qtot  0.910
    59       HAL2    182   DLKC1H  H114S     59     0.090000     1.0080   ; qtot  1.000
    60       CTL2    182   DLKC1H   C115     60    -0.180000    12.0110   ; qtot  0.820
    61       HAL2    182   DLKC1H  H115R     61     0.090000     1.0080   ; qtot  0.910
    62       HAL2    182   DLKC1H  H115S     62     0.090000     1.0080   ; qtot  1.000
    63       CTL2    182   DLKC1H   C116     63    -0.180000    12.0110   ; qtot  0.820
    64       HAL2    182   DLKC1H  H116R     64     0.090000     1.0080   ; qtot  0.910
    65       HAL2    182   DLKC1H  H116S     65     0.090000     1.0080   ; qtot  1.000
    66       CTL2    182   DLKC1H   C117     66    -0.180000    12.0110   ; qtot  0.820
    67       HAL2    182   DLKC1H  H117R     67     0.090000     1.0080   ; qtot  0.910
    68       HAL2    182   DLKC1H  H117S     68     0.090000     1.0080   ; qtot  1.000
    69       CTL3    182   DLKC1H   C118     69    -0.270000    12.0110   ; qtot  0.730
    70       HAL3    182   DLKC1H  H118R     70     0.090000     1.0080   ; qtot  0.820
    71       HAL3    182   DLKC1H  H118S     71     0.090000     1.0080   ; qtot  0.910
    72       HAL3    182   DLKC1H  H118T     72     0.090000     1.0080   ; qtot  1.000
    73       CTL2    182   DLKC1H    C21     73    -0.180000    12.0110   ; qtot  0.820
    74       HAL2    182   DLKC1H   H21R     74     0.090000     1.0080   ; qtot  0.910
    75       HAL2    182   DLKC1H   H21S     75     0.090000     1.0080   ; qtot  1.000
    76       CTL2    182   DLKC1H    C22     76    -0.180000    12.0110   ; qtot  0.820
    77       HAL2    182   DLKC1H   H22R     77     0.090000     1.0080   ; qtot  0.910
    78       HAL2    182   DLKC1H   H22S     78     0.090000     1.0080   ; qtot  1.000
    79       CTL2    182   DLKC1H    C23     79    -0.180000    12.0110   ; qtot  0.820
    80       HAL2    182   DLKC1H   H23R     80     0.090000     1.0080   ; qtot  0.910
    81       HAL2    182   DLKC1H   H23S     81     0.090000     1.0080   ; qtot  1.000
    82       CTL2    182   DLKC1H    C24     82    -0.180000    12.0110   ; qtot  0.820
    83       HAL2    182   DLKC1H   H24R     83     0.090000     1.0080   ; qtot  0.910
    84       HAL2    182   DLKC1H   H24S     84     0.090000     1.0080   ; qtot  1.000
    85       CTL2    182   DLKC1H    C25     85    -0.180000    12.0110   ; qtot  0.820
    86       HAL2    182   DLKC1H   H25R     86     0.090000     1.0080   ; qtot  0.910
    87       HAL2    182   DLKC1H   H25S     87     0.090000     1.0080   ; qtot  1.000
    88       CTL2    182   DLKC1H    C26     88    -0.180000    12.0110   ; qtot  0.820
    89       HAL2    182   DLKC1H   H26R     89     0.090000     1.0080   ; qtot  0.910
    90       HAL2    182   DLKC1H   H26S     90     0.090000     1.0080   ; qtot  1.000
    91       CTL2    182   DLKC1H    C27     91    -0.180000    12.0110   ; qtot  0.820
    92       HAL2    182   DLKC1H   H27R     92     0.090000     1.0080   ; qtot  0.910
    93       HAL2    182   DLKC1H   H27S     93     0.090000     1.0080   ; qtot  1.000
    94       CTL2    182   DLKC1H    C28     94    -0.180000    12.0110   ; qtot  0.820
    95       HAL2    182   DLKC1H   H28R     95     0.090000     1.0080   ; qtot  0.910
    96       HAL2    182   DLKC1H   H28S     96     0.090000     1.0080   ; qtot  1.000
    97       CEL1    182   DLKC1H    C29     97    -0.150000    12.0110   ; qtot  0.850
    98       HEL1    182   DLKC1H   H29R     98     0.150000     1.0080   ; qtot  1.000
    99       CEL1    182   DLKC1H   C210     99    -0.150000    12.0110   ; qtot  0.850
   100       HEL1    182   DLKC1H  H210R    100     0.150000     1.0080   ; qtot  1.000
   101       CTL2    182   DLKC1H   C211    101    -0.180000    12.0110   ; qtot  0.820
   102       HAL2    182   DLKC1H  H211R    102     0.090000     1.0080   ; qtot  0.910
   103       HAL2    182   DLKC1H  H211S    103     0.090000     1.0080   ; qtot  1.000
   104       CEL1    182   DLKC1H   C212    104    -0.150000    12.0110   ; qtot  0.850
   105       HEL1    182   DLKC1H  H212R    105     0.150000     1.0080   ; qtot  1.000
   106       CEL1    182   DLKC1H   C213    106    -0.150000    12.0110   ; qtot  0.850
   107       HEL1    182   DLKC1H  H213R    107     0.150000     1.0080   ; qtot  1.000
   108       CTL2    182   DLKC1H   C214    108    -0.180000    12.0110   ; qtot  0.820
   109       HAL2    182   DLKC1H  H214R    109     0.090000     1.0080   ; qtot  0.910
   110       HAL2    182   DLKC1H  H214S    110     0.090000     1.0080   ; qtot  1.000
   111       CTL2    182   DLKC1H   C215    111    -0.180000    12.0110   ; qtot  0.820
   112       HAL2    182   DLKC1H  H215R    112     0.090000     1.0080   ; qtot  0.910
   113       HAL2    182   DLKC1H  H215S    113     0.090000     1.0080   ; qtot  1.000
   114       CTL2    182   DLKC1H   C216    114    -0.180000    12.0110   ; qtot  0.820
   115       HAL2    182   DLKC1H  H216R    115     0.090000     1.0080   ; qtot  0.910
   116       HAL2    182   DLKC1H  H216S    116     0.090000     1.0080   ; qtot  1.000
   117       CTL2    182   DLKC1H   C217    117    -0.180000    12.0110   ; qtot  0.820
   118       HAL2    182   DLKC1H  H217R    118     0.090000     1.0080   ; qtot  0.910
   119       HAL2    182   DLKC1H  H217S    119     0.090000     1.0080   ; qtot  1.000
   120       CTL3    182   DLKC1H   C218    120    -0.270000    12.0110   ; qtot  0.730
   121       HAL3    182   DLKC1H  H218R    121     0.090000     1.0080   ; qtot  0.820
   122       HAL3    182   DLKC1H  H218S    122     0.090000     1.0080   ; qtot  0.910
   123       HAL3    182   DLKC1H  H218T    123     0.090000     1.0080   ; qtot  1.000

[ bonds ]
; ai	aj	funct	b0	Kb
    1     2     1
    1     3     1
    1     7     1
    1    11     1
    3     4     1
    3     5     1
    3     6     1
    7     8     1
    7     9     1
    7    10     1
   11    12     1
   11    13     1
   11    16     1
   16    14     1
   14    21     1
   15    18     1
   21    15     1
   16    17     1
   16    18     1
   18    19     1
   18    20     1
   21    22     1
   21    73     1
   22    23     1
   22    24     1
   22    25     1
   25    26     1
   25    27     1
   25    28     1
   28    29     1
   28    30     1
   28    31     1
   31    32     1
   31    33     1
   31    34     1
   34    35     1
   34    36     1
   34    37     1
   37    38     1
   37    39     1
   37    40     1
   40    41     1
   40    42     1
   40    43     1
   43    44     1
   43    45     1
   43    46     1
   46    47     1
   46    48     1
   48    49     1
   48    50     1
   50    51     1
   50    52     1
   50    53     1
   53    54     1
   53    55     1
   55    56     1
   55    57     1
   57    58     1
   57    59     1
   57    60     1
   60    61     1
   60    62     1
   60    63     1
   63    64     1
   63    65     1
   63    66     1
   66    67     1
   66    68     1
   66    69     1
   69    70     1
   69    71     1
   69    72     1
   73    74     1
   73    75     1
   73    76     1
   76    77     1
   76    78     1
   76    79     1
   79    80     1
   79    81     1
   79    82     1
   82    83     1
   82    84     1
   82    85     1
   85    86     1
   85    87     1
   85    88     1
   88    89     1
   88    90     1
   88    91     1
   91    92     1
   91    93     1
   91    94     1
   94    95     1
   94    96     1
   94    97     1
   97    98     1
   97    99     1
   99   100     1
   99   101     1
  101   102     1
  101   103     1
  101   104     1
  104   105     1
  104   106     1
  106   107     1
  106   108     1
  108   109     1
  108   110     1
  108   111     1
  111   112     1
  111   113     1
  111   114     1
  114   115     1
  114   116     1
  114   117     1
  117   118     1
  117   119     1
  117   120     1
  120   121     1
  120   122     1
  120   123     1

[ pairs ]
; ai	aj	funct	c6	c12 or
; ai	aj	funct	fudgeQQ	q1	q2	c6	c12
    1    14     1
    1    17     1
    1    18     1
    2     4     1
    2     5     1
    2     6     1
    2     8     1
    2     9     1
    2    10     1
    2    12     1
    2    13     1
    2    16     1
    3     8     1
    3     9     1
    3    10     1
    3    12     1
    3    13     1
    3    16     1
    4     7     1
    4    11     1
    5     7     1
    5    11     1
    6     7     1
    6    11     1
    7    12     1
    7    13     1
    7    16     1
    8    11     1
    9    11     1
   10    11     1
   11    15     1
   11    19     1
   11    20     1
   11    21     1
   12    14     1
   12    17     1
   12    18     1
   13    14     1
   13    17     1
   13    18     1
   14    19     1
   14    20     1
   14    23     1
   14    24     1
   14    25     1
   14    74     1
   14    75     1
   14    76     1
   15    17     1
   15    23     1
   15    24     1
   15    25     1
   15    74     1
   15    75     1
   15    76     1
   16    22     1
   16    73     1
   17    19     1
   17    20     1
   17    21     1
   18    22     1
   18    73     1
   19    21     1
   20    21     1
   21    26     1
   21    27     1
   21    28     1
   21    77     1
   21    78     1
   21    79     1
   22    29     1
   22    30     1
   22    31     1
   22    74     1
   22    75     1
   22    76     1
   23    26     1
   23    27     1
   23    28     1
   23    73     1
   24    26     1
   24    27     1
   24    28     1
   24    73     1
   25    32     1
   25    33     1
   25    34     1
   25    73     1
   26    29     1
   26    30     1
   26    31     1
   27    29     1
   27    30     1
   27    31     1
   28    35     1
   28    36     1
   28    37     1
   29    32     1
   29    33     1
   29    34     1
   30    32     1
   30    33     1
   30    34     1
   31    38     1
   31    39     1
   31    40     1
   32    35     1
   32    36     1
   32    37     1
   33    35     1
   33    36     1
   33    37     1
   34    41     1
   34    42     1
   34    43     1
   35    38     1
   35    39     1
   35    40     1
   36    38     1
   36    39     1
   36    40     1
   37    44     1
   37    45     1
   37    46     1
   38    41     1
   38    42     1
   38    43     1
   39    41     1
   39    42     1
   39    43     1
   40    47     1
   40    48     1
   41    44     1
   41    45     1
   41    46     1
   42    44     1
   42    45     1
   42    46     1
   43    49     1
   43    50     1
   44    47     1
   44    48     1
   45    47     1
   45    48     1
   46    51     1
   46    52     1
   46    53     1
   47    49     1
   47    50     1
   48    54     1
   48    55     1
   49    51     1
   49    52     1
   49    53     1
   50    56     1
   50    57     1
   51    54     1
   51    55     1
   52    54     1
   52    55     1
   53    58     1
   53    59     1
   53    60     1
   54    56     1
   54    57     1
   55    61     1
   55    62     1
   55    63     1
   56    58     1
   56    59     1
   56    60     1
   57    64     1
   57    65     1
   57    66     1
   58    61     1
   58    62     1
   58    63     1
   59    61     1
   59    62     1
   59    63     1
   60    67     1
   60    68     1
   60    69     1
   61    64     1
   61    65     1
   61    66     1
   62    64     1
   62    65     1
   62    66     1
   63    70     1
   63    71     1
   63    72     1
   64    67     1
   64    68     1
   64    69     1
   65    67     1
   65    68     1
   65    69     1
   67    70     1
   67    71     1
   67    72     1
   68    70     1
   68    71     1
   68    72     1
   73    80     1
   73    81     1
   73    82     1
   74    77     1
   74    78     1
   74    79     1
   75    77     1
   75    78     1
   75    79     1
   76    83     1
   76    84     1
   76    85     1
   77    80     1
   77    81     1
   77    82     1
   78    80     1
   78    81     1
   78    82     1
   79    86     1
   79    87     1
   79    88     1
   80    83     1
   80    84     1
   80    85     1
   81    83     1
   81    84     1
   81    85     1
   82    89     1
   82    90     1
   82    91     1
   83    86     1
   83    87     1
   83    88     1
   84    86     1
   84    87     1
   84    88     1
   85    92     1
   85    93     1
   85    94     1
   86    89     1
   86    90     1
   86    91     1
   87    89     1
   87    90     1
   87    91     1
   88    95     1
   88    96     1
   88    97     1
   89    92     1
   89    93     1
   89    94     1
   90    92     1
   90    93     1
   90    94     1
   91    98     1
   91    99     1
   92    95     1
   92    96     1
   92    97     1
   93    95     1
   93    96     1
   93    97     1
   94   100     1
   94   101     1
   95    98     1
   95    99     1
   96    98     1
   96    99     1
   97   102     1
   97   103     1
   97   104     1
   98   100     1
   98   101     1
   99   105     1
   99   106     1
  100   102     1
  100   103     1
  100   104     1
  101   107     1
  101   108     1
  102   105     1
  102   106     1
  103   105     1
  103   106     1
  104   109     1
  104   110     1
  104   111     1
  105   107     1
  105   108     1
  106   112     1
  106   113     1
  106   114     1
  107   109     1
  107   110     1
  107   111     1
  108   115     1
  108   116     1
  108   117     1
  109   112     1
  109   113     1
  109   114     1
  110   112     1
  110   113     1
  110   114     1
  111   118     1
  111   119     1
  111   120     1
  112   115     1
  112   116     1
  112   117     1
  113   115     1
  113   116     1
  113   117     1
  114   121     1
  114   122     1
  114   123     1
  115   118     1
  115   119     1
  115   120     1
  116   118     1
  116   119     1
  116   120     1
  118   121     1
  118   122     1
  118   123     1
  119   121     1
  119   122     1
  119   123     1

[ angles ] 
; ai	aj	ak	funct	th0	cth	S0	Kub
    2     1     3     5
    2     1     7     5
    2     1    11     5
    3     1     7     5
    3     1    11     5
    7     1    11     5
    1     3     4     5
    1     3     5     5
    1     3     6     5
    4     3     5     5
    4     3     6     5
    5     3     6     5
    1     7     8     5
    1     7     9     5
    1     7    10     5
    8     7     9     5
    8     7    10     5
    9     7    10     5
    1    11    12     5
    1    11    13     5
    1    11    16     5
   12    11    13     5
   12    11    16     5
   13    11    16     5
   16    14    21     5
   18    15    21     5
   11    16    14     5
   11    16    17     5
   11    16    18     5
   14    16    17     5
   14    16    18     5
   17    16    18     5
   15    18    16     5
   15    18    19     5
   15    18    20     5
   16    18    19     5
   16    18    20     5
   19    18    20     5
   14    21    15     5
   14    21    22     5
   14    21    73     5
   15    21    22     5
   15    21    73     5
   22    21    73     5
   21    22    23     5
   21    22    24     5
   21    22    25     5
   23    22    24     5
   23    22    25     5
   24    22    25     5
   22    25    26     5
   22    25    27     5
   22    25    28     5
   26    25    27     5
   26    25    28     5
   27    25    28     5
   25    28    29     5
   25    28    30     5
   25    28    31     5
   29    28    30     5
   29    28    31     5
   30    28    31     5
   28    31    32     5
   28    31    33     5
   28    31    34     5
   32    31    33     5
   32    31    34     5
   33    31    34     5
   31    34    35     5
   31    34    36     5
   31    34    37     5
   35    34    36     5
   35    34    37     5
   36    34    37     5
   34    37    38     5
   34    37    39     5
   34    37    40     5
   38    37    39     5
   38    37    40     5
   39    37    40     5
   37    40    41     5
   37    40    42     5
   37    40    43     5
   41    40    42     5
   41    40    43     5
   42    40    43     5
   40    43    44     5
   40    43    45     5
   40    43    46     5
   44    43    45     5
   44    43    46     5
   45    43    46     5
   43    46    47     5
   43    46    48     5
   47    46    48     5
   46    48    49     5
   46    48    50     5
   49    48    50     5
   48    50    51     5
   48    50    52     5
   48    50    53     5
   51    50    52     5
   51    50    53     5
   52    50    53     5
   50    53    54     5
   50    53    55     5
   54    53    55     5
   53    55    56     5
   53    55    57     5
   56    55    57     5
   55    57    58     5
   55    57    59     5
   55    57    60     5
   58    57    59     5
   58    57    60     5
   59    57    60     5
   57    60    61     5
   57    60    62     5
   57    60    63     5
   61    60    62     5
   61    60    63     5
   62    60    63     5
   60    63    64     5
   60    63    65     5
   60    63    66     5
   64    63    65     5
   64    63    66     5
   65    63    66     5
   63    66    67     5
   63    66    68     5
   63    66    69     5
   67    66    68     5
   67    66    69     5
   68    66    69     5
   66    69    70     5
   66    69    71     5
   66    69    72     5
   70    69    71     5
   70    69    72     5
   71    69    72     5
   21    73    74     5
   21    73    75     5
   21    73    76     5
   74    73    75     5
   74    73    76     5
   75    73    76     5
   73    76    77     5
   73    76    78     5
   73    76    79     5
   77    76    78     5
   77    76    79     5
   78    76    79     5
   76    79    80     5
   76    79    81     5
   76    79    82     5
   80    79    81     5
   80    79    82     5
   81    79    82     5
   79    82    83     5
   79    82    84     5
   79    82    85     5
   83    82    84     5
   83    82    85     5
   84    82    85     5
   82    85    86     5
   82    85    87     5
   82    85    88     5
   86    85    87     5
   86    85    88     5
   87    85    88     5
   85    88    89     5
   85    88    90     5
   85    88    91     5
   89    88    90     5
   89    88    91     5
   90    88    91     5
   88    91    92     5
   88    91    93     5
   88    91    94     5
   92    91    93     5
   92    91    94     5
   93    91    94     5
   91    94    95     5
   91    94    96     5
   91    94    97     5
   95    94    96     5
   95    94    97     5
   96    94    97     5
   94    97    98     5
   94    97    99     5
   98    97    99     5
   97    99   100     5
   97    99   101     5
  100    99   101     5
   99   101   102     5
   99   101   103     5
   99   101   104     5
  102   101   103     5
  102   101   104     5
  103   101   104     5
  101   104   105     5
  101   104   106     5
  105   104   106     5
  104   106   107     5
  104   106   108     5
  107   106   108     5
  106   108   109     5
  106   108   110     5
  106   108   111     5
  109   108   110     5
  109   108   111     5
  110   108   111     5
  108   111   112     5
  108   111   113     5
  108   111   114     5
  112   111   113     5
  112   111   114     5
  113   111   114     5
  111   114   115     5
  111   114   116     5
  111   114   117     5
  115   114   116     5
  115   114   117     5
  116   114   117     5
  114   117   118     5
  114   117   119     5
  114   117   120     5
  118   117   119     5
  118   117   120     5
  119   117   120     5
  117   120   121     5
  117   120   122     5
  117   120   123     5
  121   120   122     5
  121   120   123     5
  122   120   123     5

[ dihedrals ]
; ai	aj	ak	al	funct	phi0	cp	mult
    2     1     3     4     9
    2     1     3     5     9
    2     1     3     6     9
    2     1     7     8     9
    2     1     7     9     9
    2     1     7    10     9
    3     1     7     8     9
    3     1     7     9     9
    3     1     7    10     9
    2     1    11    12     9
    2     1    11    13     9
    2     1    11    16     9
    3     1    11    12     9
    3     1    11    13     9
    3     1    11    16     9
    7     1    11    12     9
    7     1    11    13     9
    7     1    11    16     9
    4     3     1     7     9
    4     3     1    11     9
    5     3     1     7     9
    5     3     1    11     9
    6     3     1     7     9
    6     3     1    11     9
    8     7     1    11     9
    9     7     1    11     9
   10     7     1    11     9
    1    11    16    14     9
    1    11    16    17     9
    1    11    16    18     9
   12    11    16    14     9
   12    11    16    17     9
   12    11    16    18     9
   13    11    16    14     9
   13    11    16    17     9
   13    11    16    18     9
   16    14    21    22     9
   16    14    21    73     9
   18    15    21    22     9
   18    15    21    73     9
   11    16    14    21     9
   17    16    14    21     9
   18    16    14    21     9
   11    16    18    15     9
   11    16    18    19     9
   11    16    18    20     9
   14    16    18    15     9
   14    16    18    19     9
   14    16    18    20     9
   17    16    18    19     9
   17    16    18    20     9
   16    18    15    21     9
   19    18    15    21     9
   20    18    15    21     9
   15    18    16    17     9
   15    21    14    16     9
   14    21    15    18     9
   14    21    22    23     9
   14    21    22    24     9
   14    21    22    25     9
   15    21    22    23     9
   15    21    22    24     9
   15    21    22    25     9
   14    21    73    74     9
   14    21    73    75     9
   14    21    73    76     9
   15    21    73    74     9
   15    21    73    75     9
   15    21    73    76     9
   22    21    73    74     9
   22    21    73    75     9
   22    21    73    76     9
   23    22    21    73     9
   24    22    21    73     9
   25    22    21    73     9
   21    22    25    26     9
   21    22    25    27     9
   21    22    25    28     9
   23    22    25    26     9
   23    22    25    27     9
   23    22    25    28     9
   24    22    25    26     9
   24    22    25    27     9
   24    22    25    28     9
   22    25    28    29     9
   22    25    28    30     9
   22    25    28    31     9
   26    25    28    29     9
   26    25    28    30     9
   26    25    28    31     9
   27    25    28    29     9
   27    25    28    30     9
   27    25    28    31     9
   25    28    31    32     9
   25    28    31    33     9
   25    28    31    34     9
   29    28    31    32     9
   29    28    31    33     9
   29    28    31    34     9
   30    28    31    32     9
   30    28    31    33     9
   30    28    31    34     9
   28    31    34    35     9
   28    31    34    36     9
   28    31    34    37     9
   32    31    34    35     9
   32    31    34    36     9
   32    31    34    37     9
   33    31    34    35     9
   33    31    34    36     9
   33    31    34    37     9
   31    34    37    38     9
   31    34    37    39     9
   31    34    37    40     9
   35    34    37    38     9
   35    34    37    39     9
   35    34    37    40     9
   36    34    37    38     9
   36    34    37    39     9
   36    34    37    40     9
   34    37    40    41     9
   34    37    40    42     9
   34    37    40    43     9
   38    37    40    41     9
   38    37    40    42     9
   38    37    40    43     9
   39    37    40    41     9
   39    37    40    42     9
   39    37    40    43     9
   37    40    43    44     9
   37    40    43    45     9
   37    40    43    46     9
   41    40    43    44     9
   41    40    43    45     9
   41    40    43    46     9
   42    40    43    44     9
   42    40    43    45     9
   42    40    43    46     9
   40    43    46    47     9
   40    43    46    48     9
   44    43    46    47     9
   44    43    46    48     9
   45    43    46    47     9
   45    43    46    48     9
   43    46    48    49     9
   43    46    48    50     9
   47    46    48    49     9
   47    46    48    50     9
   46    48    50    51     9
   46    48    50    52     9
   46    48    50    53     9
   49    48    50    51     9
   49    48    50    52     9
   49    48    50    53     9
   48    50    53    54     9
   48    50    53    55     9
   51    50    53    54     9
   51    50    53    55     9
   52    50    53    54     9
   52    50    53    55     9
   50    53    55    56     9
   50    53    55    57     9
   54    53    55    56     9
   54    53    55    57     9
   53    55    57    58     9
   53    55    57    59     9
   53    55    57    60     9
   56    55    57    58     9
   56    55    57    59     9
   56    55    57    60     9
   55    57    60    61     9
   55    57    60    62     9
   55    57    60    63     9
   58    57    60    61     9
   58    57    60    62     9
   58    57    60    63     9
   59    57    60    61     9
   59    57    60    62     9
   59    57    60    63     9
   57    60    63    64     9
   57    60    63    65     9
   57    60    63    66     9
   61    60    63    64     9
   61    60    63    65     9
   61    60    63    66     9
   62    60    63    64     9
   62    60    63    65     9
   62    60    63    66     9
   60    63    66    67     9
   60    63    66    68     9
   60    63    66    69     9
   64    63    66    67     9
   64    63    66    68     9
   64    63    66    69     9
   65    63    66    67     9
   65    63    66    68     9
   65    63    66    69     9
   63    66    69    70     9
   63    66    69    71     9
   63    66    69    72     9
   67    66    69    70     9
   67    66    69    71     9
   67    66    69    72     9
   68    66    69    70     9
   68    66    69    71     9
   68    66    69    72     9
   21    73    76    77     9
   21    73    76    78     9
   21    73    76    79     9
   74    73    76    77     9
   74    73    76    78     9
   74    73    76    79     9
   75    73    76    77     9
   75    73    76    78     9
   75    73    76    79     9
   73    76    79    80     9
   73    76    79    81     9
   73    76    79    82     9
   77    76    79    80     9
   77    76    79    81     9
   77    76    79    82     9
   78    76    79    80     9
   78    76    79    81     9
   78    76    79    82     9
   76    79    82    83     9
   76    79    82    84     9
   76    79    82    85     9
   80    79    82    83     9
   80    79    82    84     9
   80    79    82    85     9
   81    79    82    83     9
   81    79    82    84     9
   81    79    82    85     9
   79    82    85    86     9
   79    82    85    87     9
   79    82    85    88     9
   83    82    85    86     9
   83    82    85    87     9
   83    82    85    88     9
   84    82    85    86     9
   84    82    85    87     9
   84    82    85    88     9
   82    85    88    89     9
   82    85    88    90     9
   82    85    88    91     9
   86    85    88    89     9
   86    85    88    90     9
   86    85    88    91     9
   87    85    88    89     9
   87    85    88    90     9
   87    85    88    91     9
   85    88    91    92     9
   85    88    91    93     9
   85    88    91    94     9
   89    88    91    92     9
   89    88    91    93     9
   89    88    91    94     9
   90    88    91    92     9
   90    88    91    93     9
   90    88    91    94     9
   88    91    94    95     9
   88    91    94    96     9
   88    91    94    97     9
   92    91    94    95     9
   92    91    94    96     9
   92    91    94    97     9
   93    91    94    95     9
   93    91    94    96     9
   93    91    94    97     9
   91    94    97    98     9
   91    94    97    99     9
   95    94    97    98     9
   95    94    97    99     9
   96    94    97    98     9
   96    94    97    99     9
   94    97    99   100     9
   94    97    99   101     9
   98    97    99   100     9
   98    97    99   101     9
   97    99   101   102     9
   97    99   101   103     9
   97    99   101   104     9
  100    99   101   102     9
  100    99   101   103     9
  100    99   101   104     9
   99   101   104   105     9
   99   101   104   106     9
  102   101   104   105     9
  102   101   104   106     9
  103   101   104   105     9
  103   101   104   106     9
  101   104   106   107     9
  101   104   106   108     9
  105   104   106   107     9
  105   104   106   108     9
  104   106   108   109     9
  104   106   108   110     9
  104   106   108   111     9
  107   106   108   109     9
  107   106   108   110     9
  107   106   108   111     9
  106   108   111   112     9
  106   108   111   113     9
  106   108   111   114     9
  109   108   111   112     9
  109   108   111   113     9
  109   108   111   114     9
  110   108   111   112     9
  110   108   111   113     9
  110   108   111   114     9
  108   111   114   115     9
  108   111   114   116     9
  108   111   114   117     9
  112   111   114   115     9
  112   111   114   116     9
  112   111   114   117     9
  113   111   114   115     9
  113   111   114   116     9
  113   111   114   117     9
  111   114   117   118     9
  111   114   117   119     9
  111   114   117   120     9
  115   114   117   118     9
  115   114   117   119     9
  115   114   117   120     9
  116   114   117   118     9
  116   114   117   119     9
  116   114   117   120     9
  114   117   120   121     9
  114   117   120   122     9
  114   117   120   123     9
  118   117   120   121     9
  118   117   120   122     9
  118   117   120   123     9
  119   117   120   121     9
  119   117   120   122     9
  119   117   120   123     9

#ifdef POSRES
[ position_restraints ]
    1     1     0.0             0.0            POSRES_FC_LIPID
#endif

#ifdef DIHRES
[ dihedral_restraints ]
   43    46    48    50     1      0.0      0.0       DIHRES_FC
   50    53    55    57     1      0.0      0.0       DIHRES_FC
   94    97    99   101     1      0.0      0.0       DIHRES_FC
  101   104   106   108     1      0.0      0.0       DIHRES_FC
#endif
