;;
;; Generated by CHARMM-GUI FF-Converter
;;
;; Correspondance:
;; jul316@lehigh.edu or wonpil@lehigh.edu
;;
;; GROMACS topology file for DLTAP
;;


[ moleculetype ]
; name	nrexcl
DLTAP	     3

[ atoms ]
; nr	type	resnr	residu	atom	cgnr	charge	mass
     1        NTL     75    DLTAP      N      1    -0.600000    14.0070   ; qtot -0.600
     2       CTL5     75    DLTAP    C13      2    -0.350000    12.0110   ; qtot -0.950
     3         HL     75    DLTAP   H13A      3     0.250000     1.0080   ; qtot -0.700
     4         HL     75    DLTAP   H13B      4     0.250000     1.0080   ; qtot -0.450
     5         HL     75    DLTAP   H13C      5     0.250000     1.0080   ; qtot -0.200
     6       CTL5     75    DLTAP    C14      6    -0.350000    12.0110   ; qtot -0.550
     7         HL     75    DLTAP   H14A      7     0.250000     1.0080   ; qtot -0.300
     8         HL     75    DLTAP   H14B      8     0.250000     1.0080   ; qtot -0.050
     9         HL     75    DLTAP   H14C      9     0.250000     1.0080   ; qtot  0.200
    10       CTL5     75    DLTAP    C15     10    -0.350000    12.0110   ; qtot -0.150
    11         HL     75    DLTAP   H15A     11     0.250000     1.0080   ; qtot  0.100
    12         HL     75    DLTAP   H15B     12     0.250000     1.0080   ; qtot  0.350
    13         HL     75    DLTAP   H15C     13     0.250000     1.0080   ; qtot  0.600
    14       CTL2     75    DLTAP    C12     14    -0.100000    12.0110   ; qtot  0.500
    15         HL     75    DLTAP   H12A     15     0.250000     1.0080   ; qtot  0.750
    16         HL     75    DLTAP   H12B     16     0.250000     1.0080   ; qtot  1.000
    17       CTL1     75    DLTAP     C2     17     0.170000    12.0110   ; qtot  1.170
    18       HAL1     75    DLTAP     HS     18     0.090000     1.0080   ; qtot  1.260
    19        OSL     75    DLTAP    O21     19    -0.490000    15.9994   ; qtot  0.770
    20         CL     75    DLTAP    C21     20     0.900000    12.0110   ; qtot  1.670
    21        OBL     75    DLTAP    O22     21    -0.630000    15.9994   ; qtot  1.040
    22       CTL2     75    DLTAP    C22     22    -0.220000    12.0110   ; qtot  0.820
    23       HAL2     75    DLTAP    H2R     23     0.090000     1.0080   ; qtot  0.910
    24       HAL2     75    DLTAP    H2S     24     0.090000     1.0080   ; qtot  1.000
    25       CTL2     75    DLTAP     C3     25     0.080000    12.0110   ; qtot  1.080
    26       HAL2     75    DLTAP     HX     26     0.090000     1.0080   ; qtot  1.170
    27       HAL2     75    DLTAP     HY     27     0.090000     1.0080   ; qtot  1.260
    28        OSL     75    DLTAP    O31     28    -0.490000    15.9994   ; qtot  0.770
    29         CL     75    DLTAP    C31     29     0.900000    12.0110   ; qtot  1.670
    30        OBL     75    DLTAP    O32     30    -0.630000    15.9994   ; qtot  1.040
    31       CTL2     75    DLTAP    C32     31    -0.220000    12.0110   ; qtot  0.820
    32       HAL2     75    DLTAP    H2X     32     0.090000     1.0080   ; qtot  0.910
    33       HAL2     75    DLTAP    H2Y     33     0.090000     1.0080   ; qtot  1.000
    34       CTL2     75    DLTAP    C23     34    -0.180000    12.0110   ; qtot  0.820
    35       HAL2     75    DLTAP    H3R     35     0.090000     1.0080   ; qtot  0.910
    36       HAL2     75    DLTAP    H3S     36     0.090000     1.0080   ; qtot  1.000
    37       CTL2     75    DLTAP    C24     37    -0.180000    12.0110   ; qtot  0.820
    38       HAL2     75    DLTAP    H4R     38     0.090000     1.0080   ; qtot  0.910
    39       HAL2     75    DLTAP    H4S     39     0.090000     1.0080   ; qtot  1.000
    40       CTL2     75    DLTAP    C25     40    -0.180000    12.0110   ; qtot  0.820
    41       HAL2     75    DLTAP    H5R     41     0.090000     1.0080   ; qtot  0.910
    42       HAL2     75    DLTAP    H5S     42     0.090000     1.0080   ; qtot  1.000
    43       CTL2     75    DLTAP    C26     43    -0.180000    12.0110   ; qtot  0.820
    44       HAL2     75    DLTAP    H6R     44     0.090000     1.0080   ; qtot  0.910
    45       HAL2     75    DLTAP    H6S     45     0.090000     1.0080   ; qtot  1.000
    46       CTL2     75    DLTAP    C27     46    -0.180000    12.0110   ; qtot  0.820
    47       HAL2     75    DLTAP    H7R     47     0.090000     1.0080   ; qtot  0.910
    48       HAL2     75    DLTAP    H7S     48     0.090000     1.0080   ; qtot  1.000
    49       CTL2     75    DLTAP    C28     49    -0.180000    12.0110   ; qtot  0.820
    50       HAL2     75    DLTAP    H8R     50     0.090000     1.0080   ; qtot  0.910
    51       HAL2     75    DLTAP    H8S     51     0.090000     1.0080   ; qtot  1.000
    52       CEL1     75    DLTAP    C29     52    -0.150000    12.0110   ; qtot  0.850
    53       HEL1     75    DLTAP    H9R     53     0.150000     1.0080   ; qtot  1.000
    54       CEL1     75    DLTAP   C210     54    -0.150000    12.0110   ; qtot  0.850
    55       HEL1     75    DLTAP   H10R     55     0.150000     1.0080   ; qtot  1.000
    56       CTL2     75    DLTAP   C211     56    -0.180000    12.0110   ; qtot  0.820
    57       HAL2     75    DLTAP   H11R     57     0.090000     1.0080   ; qtot  0.910
    58       HAL2     75    DLTAP   H11S     58     0.090000     1.0080   ; qtot  1.000
    59       CEL1     75    DLTAP   C212     59    -0.150000    12.0110   ; qtot  0.850
    60       HEL1     75    DLTAP   H12R     60     0.150000     1.0080   ; qtot  1.000
    61       CEL1     75    DLTAP   C213     61    -0.150000    12.0110   ; qtot  0.850
    62       HEL1     75    DLTAP   H13R     62     0.150000     1.0080   ; qtot  1.000
    63       CTL2     75    DLTAP   C214     63    -0.180000    12.0110   ; qtot  0.820
    64       HAL2     75    DLTAP   H14R     64     0.090000     1.0080   ; qtot  0.910
    65       HAL2     75    DLTAP   H14S     65     0.090000     1.0080   ; qtot  1.000
    66       CTL2     75    DLTAP   C215     66    -0.180000    12.0110   ; qtot  0.820
    67       HAL2     75    DLTAP   H15R     67     0.090000     1.0080   ; qtot  0.910
    68       HAL2     75    DLTAP   H15S     68     0.090000     1.0080   ; qtot  1.000
    69       CTL2     75    DLTAP   C216     69    -0.180000    12.0110   ; qtot  0.820
    70       HAL2     75    DLTAP   H16R     70     0.090000     1.0080   ; qtot  0.910
    71       HAL2     75    DLTAP   H16S     71     0.090000     1.0080   ; qtot  1.000
    72       CTL2     75    DLTAP   C217     72    -0.180000    12.0110   ; qtot  0.820
    73       HAL2     75    DLTAP   H17R     73     0.090000     1.0080   ; qtot  0.910
    74       HAL2     75    DLTAP   H17S     74     0.090000     1.0080   ; qtot  1.000
    75       CTL3     75    DLTAP   C218     75    -0.270000    12.0110   ; qtot  0.730
    76       HAL3     75    DLTAP   H18R     76     0.090000     1.0080   ; qtot  0.820
    77       HAL3     75    DLTAP   H18S     77     0.090000     1.0080   ; qtot  0.910
    78       HAL3     75    DLTAP   H18T     78     0.090000     1.0080   ; qtot  1.000
    79       CTL2     75    DLTAP    C33     79    -0.180000    12.0110   ; qtot  0.820
    80       HAL2     75    DLTAP    H3X     80     0.090000     1.0080   ; qtot  0.910
    81       HAL2     75    DLTAP    H3Y     81     0.090000     1.0080   ; qtot  1.000
    82       CTL2     75    DLTAP    C34     82    -0.180000    12.0110   ; qtot  0.820
    83       HAL2     75    DLTAP    H4X     83     0.090000     1.0080   ; qtot  0.910
    84       HAL2     75    DLTAP    H4Y     84     0.090000     1.0080   ; qtot  1.000
    85       CTL2     75    DLTAP    C35     85    -0.180000    12.0110   ; qtot  0.820
    86       HAL2     75    DLTAP    H5X     86     0.090000     1.0080   ; qtot  0.910
    87       HAL2     75    DLTAP    H5Y     87     0.090000     1.0080   ; qtot  1.000
    88       CTL2     75    DLTAP    C36     88    -0.180000    12.0110   ; qtot  0.820
    89       HAL2     75    DLTAP    H6X     89     0.090000     1.0080   ; qtot  0.910
    90       HAL2     75    DLTAP    H6Y     90     0.090000     1.0080   ; qtot  1.000
    91       CTL2     75    DLTAP    C37     91    -0.180000    12.0110   ; qtot  0.820
    92       HAL2     75    DLTAP    H7X     92     0.090000     1.0080   ; qtot  0.910
    93       HAL2     75    DLTAP    H7Y     93     0.090000     1.0080   ; qtot  1.000
    94       CTL2     75    DLTAP    C38     94    -0.180000    12.0110   ; qtot  0.820
    95       HAL2     75    DLTAP    H8X     95     0.090000     1.0080   ; qtot  0.910
    96       HAL2     75    DLTAP    H8Y     96     0.090000     1.0080   ; qtot  1.000
    97       CEL1     75    DLTAP    C39     97    -0.150000    12.0110   ; qtot  0.850
    98       HEL1     75    DLTAP    H9X     98     0.150000     1.0080   ; qtot  1.000
    99       CEL1     75    DLTAP   C310     99    -0.150000    12.0110   ; qtot  0.850
   100       HEL1     75    DLTAP   H10X    100     0.150000     1.0080   ; qtot  1.000
   101       CTL2     75    DLTAP   C311    101    -0.180000    12.0110   ; qtot  0.820
   102       HAL2     75    DLTAP   H11X    102     0.090000     1.0080   ; qtot  0.910
   103       HAL2     75    DLTAP   H11Y    103     0.090000     1.0080   ; qtot  1.000
   104       CEL1     75    DLTAP   C312    104    -0.150000    12.0110   ; qtot  0.850
   105       HEL1     75    DLTAP   H12X    105     0.150000     1.0080   ; qtot  1.000
   106       CEL1     75    DLTAP   C313    106    -0.150000    12.0110   ; qtot  0.850
   107       HEL1     75    DLTAP   H13X    107     0.150000     1.0080   ; qtot  1.000
   108       CTL2     75    DLTAP   C314    108    -0.180000    12.0110   ; qtot  0.820
   109       HAL2     75    DLTAP   H14X    109     0.090000     1.0080   ; qtot  0.910
   110       HAL2     75    DLTAP   H14Y    110     0.090000     1.0080   ; qtot  1.000
   111       CTL2     75    DLTAP   C315    111    -0.180000    12.0110   ; qtot  0.820
   112       HAL2     75    DLTAP   H15X    112     0.090000     1.0080   ; qtot  0.910
   113       HAL2     75    DLTAP   H15Y    113     0.090000     1.0080   ; qtot  1.000
   114       CTL2     75    DLTAP   C316    114    -0.180000    12.0110   ; qtot  0.820
   115       HAL2     75    DLTAP   H16X    115     0.090000     1.0080   ; qtot  0.910
   116       HAL2     75    DLTAP   H16Y    116     0.090000     1.0080   ; qtot  1.000
   117       CTL2     75    DLTAP   C317    117    -0.180000    12.0110   ; qtot  0.820
   118       HAL2     75    DLTAP   H17X    118     0.090000     1.0080   ; qtot  0.910
   119       HAL2     75    DLTAP   H17Y    119     0.090000     1.0080   ; qtot  1.000
   120       CTL3     75    DLTAP   C318    120    -0.270000    12.0110   ; qtot  0.730
   121       HAL3     75    DLTAP   H18X    121     0.090000     1.0080   ; qtot  0.820
   122       HAL3     75    DLTAP   H18Y    122     0.090000     1.0080   ; qtot  0.910
   123       HAL3     75    DLTAP   H18Z    123     0.090000     1.0080   ; qtot  1.000

[ bonds ]
; ai	aj	funct	b0	Kb
    1     2     1
    1     6     1
    1    10     1
    1    14     1
    2     3     1
    2     4     1
    2     5     1
    6     7     1
    6     8     1
    6     9     1
   10    11     1
   10    12     1
   10    13     1
   14    15     1
   14    16     1
   14    17     1
   17    18     1
   17    19     1
   17    25     1
   19    20     1
   20    21     1
   20    22     1
   22    23     1
   22    24     1
   22    34     1
   25    26     1
   25    27     1
   25    28     1
   28    29     1
   29    30     1
   29    31     1
   31    32     1
   31    33     1
   31    79     1
   34    35     1
   34    36     1
   34    37     1
   37    38     1
   37    39     1
   37    40     1
   40    41     1
   40    42     1
   40    43     1
   43    44     1
   43    45     1
   43    46     1
   46    47     1
   46    48     1
   46    49     1
   49    50     1
   49    51     1
   49    52     1
   52    53     1
   52    54     1
   54    55     1
   54    56     1
   56    57     1
   56    58     1
   56    59     1
   59    60     1
   59    61     1
   61    62     1
   61    63     1
   63    64     1
   63    65     1
   63    66     1
   66    67     1
   66    68     1
   66    69     1
   69    70     1
   69    71     1
   69    72     1
   72    73     1
   72    74     1
   72    75     1
   75    76     1
   75    77     1
   75    78     1
   79    80     1
   79    81     1
   79    82     1
   82    83     1
   82    84     1
   82    85     1
   85    86     1
   85    87     1
   85    88     1
   88    89     1
   88    90     1
   88    91     1
   91    92     1
   91    93     1
   91    94     1
   94    95     1
   94    96     1
   94    97     1
   97    98     1
   97    99     1
   99   100     1
   99   101     1
  101   102     1
  101   103     1
  101   104     1
  104   105     1
  104   106     1
  106   107     1
  106   108     1
  108   109     1
  108   110     1
  108   111     1
  111   112     1
  111   113     1
  111   114     1
  114   115     1
  114   116     1
  114   117     1
  117   118     1
  117   119     1
  117   120     1
  120   121     1
  120   122     1
  120   123     1

[ pairs ]
; ai	aj	funct	c6	c12 or
; ai	aj	funct	fudgeQQ	q1	q2	c6	c12
    1    18     1
    1    19     1
    1    25     1
    2     7     1
    2     8     1
    2     9     1
    2    11     1
    2    12     1
    2    13     1
    2    15     1
    2    16     1
    2    17     1
    3     6     1
    3    10     1
    3    14     1
    4     6     1
    4    10     1
    4    14     1
    5     6     1
    5    10     1
    5    14     1
    6    11     1
    6    12     1
    6    13     1
    6    15     1
    6    16     1
    6    17     1
    7    10     1
    7    14     1
    8    10     1
    8    14     1
    9    10     1
    9    14     1
   10    15     1
   10    16     1
   10    17     1
   11    14     1
   12    14     1
   13    14     1
   14    20     1
   14    26     1
   14    27     1
   14    28     1
   15    18     1
   15    19     1
   15    25     1
   16    18     1
   16    19     1
   16    25     1
   17    21     1
   17    22     1
   17    29     1
   18    20     1
   18    26     1
   18    27     1
   18    28     1
   19    23     1
   19    24     1
   19    26     1
   19    27     1
   19    28     1
   19    34     1
   20    25     1
   20    35     1
   20    36     1
   20    37     1
   21    23     1
   21    24     1
   21    34     1
   22    38     1
   22    39     1
   22    40     1
   23    35     1
   23    36     1
   23    37     1
   24    35     1
   24    36     1
   24    37     1
   25    30     1
   25    31     1
   26    29     1
   27    29     1
   28    32     1
   28    33     1
   28    79     1
   29    80     1
   29    81     1
   29    82     1
   30    32     1
   30    33     1
   30    79     1
   31    83     1
   31    84     1
   31    85     1
   32    80     1
   32    81     1
   32    82     1
   33    80     1
   33    81     1
   33    82     1
   34    41     1
   34    42     1
   34    43     1
   35    38     1
   35    39     1
   35    40     1
   36    38     1
   36    39     1
   36    40     1
   37    44     1
   37    45     1
   37    46     1
   38    41     1
   38    42     1
   38    43     1
   39    41     1
   39    42     1
   39    43     1
   40    47     1
   40    48     1
   40    49     1
   41    44     1
   41    45     1
   41    46     1
   42    44     1
   42    45     1
   42    46     1
   43    50     1
   43    51     1
   43    52     1
   44    47     1
   44    48     1
   44    49     1
   45    47     1
   45    48     1
   45    49     1
   46    53     1
   46    54     1
   47    50     1
   47    51     1
   47    52     1
   48    50     1
   48    51     1
   48    52     1
   49    55     1
   49    56     1
   50    53     1
   50    54     1
   51    53     1
   51    54     1
   52    57     1
   52    58     1
   52    59     1
   53    55     1
   53    56     1
   54    60     1
   54    61     1
   55    57     1
   55    58     1
   55    59     1
   56    62     1
   56    63     1
   57    60     1
   57    61     1
   58    60     1
   58    61     1
   59    64     1
   59    65     1
   59    66     1
   60    62     1
   60    63     1
   61    67     1
   61    68     1
   61    69     1
   62    64     1
   62    65     1
   62    66     1
   63    70     1
   63    71     1
   63    72     1
   64    67     1
   64    68     1
   64    69     1
   65    67     1
   65    68     1
   65    69     1
   66    73     1
   66    74     1
   66    75     1
   67    70     1
   67    71     1
   67    72     1
   68    70     1
   68    71     1
   68    72     1
   69    76     1
   69    77     1
   69    78     1
   70    73     1
   70    74     1
   70    75     1
   71    73     1
   71    74     1
   71    75     1
   73    76     1
   73    77     1
   73    78     1
   74    76     1
   74    77     1
   74    78     1
   79    86     1
   79    87     1
   79    88     1
   80    83     1
   80    84     1
   80    85     1
   81    83     1
   81    84     1
   81    85     1
   82    89     1
   82    90     1
   82    91     1
   83    86     1
   83    87     1
   83    88     1
   84    86     1
   84    87     1
   84    88     1
   85    92     1
   85    93     1
   85    94     1
   86    89     1
   86    90     1
   86    91     1
   87    89     1
   87    90     1
   87    91     1
   88    95     1
   88    96     1
   88    97     1
   89    92     1
   89    93     1
   89    94     1
   90    92     1
   90    93     1
   90    94     1
   91    98     1
   91    99     1
   92    95     1
   92    96     1
   92    97     1
   93    95     1
   93    96     1
   93    97     1
   94   100     1
   94   101     1
   95    98     1
   95    99     1
   96    98     1
   96    99     1
   97   102     1
   97   103     1
   97   104     1
   98   100     1
   98   101     1
   99   105     1
   99   106     1
  100   102     1
  100   103     1
  100   104     1
  101   107     1
  101   108     1
  102   105     1
  102   106     1
  103   105     1
  103   106     1
  104   109     1
  104   110     1
  104   111     1
  105   107     1
  105   108     1
  106   112     1
  106   113     1
  106   114     1
  107   109     1
  107   110     1
  107   111     1
  108   115     1
  108   116     1
  108   117     1
  109   112     1
  109   113     1
  109   114     1
  110   112     1
  110   113     1
  110   114     1
  111   118     1
  111   119     1
  111   120     1
  112   115     1
  112   116     1
  112   117     1
  113   115     1
  113   116     1
  113   117     1
  114   121     1
  114   122     1
  114   123     1
  115   118     1
  115   119     1
  115   120     1
  116   118     1
  116   119     1
  116   120     1
  118   121     1
  118   122     1
  118   123     1
  119   121     1
  119   122     1
  119   123     1

[ angles ] 
; ai	aj	ak	funct	th0	cth	S0	Kub
    2     1     6     5
    2     1    10     5
    2     1    14     5
    6     1    10     5
    6     1    14     5
   10     1    14     5
    1     2     3     5
    1     2     4     5
    1     2     5     5
    3     2     4     5
    3     2     5     5
    4     2     5     5
    1     6     7     5
    1     6     8     5
    1     6     9     5
    7     6     8     5
    7     6     9     5
    8     6     9     5
    1    10    11     5
    1    10    12     5
    1    10    13     5
   11    10    12     5
   11    10    13     5
   12    10    13     5
    1    14    15     5
    1    14    16     5
    1    14    17     5
   15    14    16     5
   15    14    17     5
   16    14    17     5
   14    17    18     5
   14    17    19     5
   14    17    25     5
   18    17    19     5
   18    17    25     5
   19    17    25     5
   17    19    20     5
   19    20    21     5
   19    20    22     5
   21    20    22     5
   20    22    23     5
   20    22    24     5
   20    22    34     5
   23    22    24     5
   23    22    34     5
   24    22    34     5
   17    25    26     5
   17    25    27     5
   17    25    28     5
   26    25    27     5
   26    25    28     5
   27    25    28     5
   25    28    29     5
   28    29    30     5
   28    29    31     5
   30    29    31     5
   29    31    32     5
   29    31    33     5
   29    31    79     5
   32    31    33     5
   32    31    79     5
   33    31    79     5
   22    34    35     5
   22    34    36     5
   22    34    37     5
   35    34    36     5
   35    34    37     5
   36    34    37     5
   34    37    38     5
   34    37    39     5
   34    37    40     5
   38    37    39     5
   38    37    40     5
   39    37    40     5
   37    40    41     5
   37    40    42     5
   37    40    43     5
   41    40    42     5
   41    40    43     5
   42    40    43     5
   40    43    44     5
   40    43    45     5
   40    43    46     5
   44    43    45     5
   44    43    46     5
   45    43    46     5
   43    46    47     5
   43    46    48     5
   43    46    49     5
   47    46    48     5
   47    46    49     5
   48    46    49     5
   46    49    50     5
   46    49    51     5
   46    49    52     5
   50    49    51     5
   50    49    52     5
   51    49    52     5
   49    52    53     5
   49    52    54     5
   53    52    54     5
   52    54    55     5
   52    54    56     5
   55    54    56     5
   54    56    57     5
   54    56    58     5
   54    56    59     5
   57    56    58     5
   57    56    59     5
   58    56    59     5
   56    59    60     5
   56    59    61     5
   60    59    61     5
   59    61    62     5
   59    61    63     5
   62    61    63     5
   61    63    64     5
   61    63    65     5
   61    63    66     5
   64    63    65     5
   64    63    66     5
   65    63    66     5
   63    66    67     5
   63    66    68     5
   63    66    69     5
   67    66    68     5
   67    66    69     5
   68    66    69     5
   66    69    70     5
   66    69    71     5
   66    69    72     5
   70    69    71     5
   70    69    72     5
   71    69    72     5
   69    72    73     5
   69    72    74     5
   69    72    75     5
   73    72    74     5
   73    72    75     5
   74    72    75     5
   72    75    76     5
   72    75    77     5
   72    75    78     5
   76    75    77     5
   76    75    78     5
   77    75    78     5
   31    79    80     5
   31    79    81     5
   31    79    82     5
   80    79    81     5
   80    79    82     5
   81    79    82     5
   79    82    83     5
   79    82    84     5
   79    82    85     5
   83    82    84     5
   83    82    85     5
   84    82    85     5
   82    85    86     5
   82    85    87     5
   82    85    88     5
   86    85    87     5
   86    85    88     5
   87    85    88     5
   85    88    89     5
   85    88    90     5
   85    88    91     5
   89    88    90     5
   89    88    91     5
   90    88    91     5
   88    91    92     5
   88    91    93     5
   88    91    94     5
   92    91    93     5
   92    91    94     5
   93    91    94     5
   91    94    95     5
   91    94    96     5
   91    94    97     5
   95    94    96     5
   95    94    97     5
   96    94    97     5
   94    97    98     5
   94    97    99     5
   98    97    99     5
   97    99   100     5
   97    99   101     5
  100    99   101     5
   99   101   102     5
   99   101   103     5
   99   101   104     5
  102   101   103     5
  102   101   104     5
  103   101   104     5
  101   104   105     5
  101   104   106     5
  105   104   106     5
  104   106   107     5
  104   106   108     5
  107   106   108     5
  106   108   109     5
  106   108   110     5
  106   108   111     5
  109   108   110     5
  109   108   111     5
  110   108   111     5
  108   111   112     5
  108   111   113     5
  108   111   114     5
  112   111   113     5
  112   111   114     5
  113   111   114     5
  111   114   115     5
  111   114   116     5
  111   114   117     5
  115   114   116     5
  115   114   117     5
  116   114   117     5
  114   117   118     5
  114   117   119     5
  114   117   120     5
  118   117   119     5
  118   117   120     5
  119   117   120     5
  117   120   121     5
  117   120   122     5
  117   120   123     5
  121   120   122     5
  121   120   123     5
  122   120   123     5

[ dihedrals ]
; ai	aj	ak	al	funct	phi0	cp	mult
    2     1     6     7     9
    2     1     6     8     9
    2     1     6     9     9
    2     1    10    11     9
    2     1    10    12     9
    2     1    10    13     9
    6     1    10    11     9
    6     1    10    12     9
    6     1    10    13     9
    2     1    14    15     9
    2     1    14    16     9
    2     1    14    17     9
    6     1    14    15     9
    6     1    14    16     9
    6     1    14    17     9
   10     1    14    15     9
   10     1    14    16     9
   10     1    14    17     9
    3     2     1     6     9
    3     2     1    10     9
    3     2     1    14     9
    4     2     1     6     9
    4     2     1    10     9
    4     2     1    14     9
    5     2     1     6     9
    5     2     1    10     9
    5     2     1    14     9
    7     6     1    10     9
    7     6     1    14     9
    8     6     1    10     9
    8     6     1    14     9
    9     6     1    10     9
    9     6     1    14     9
   11    10     1    14     9
   12    10     1    14     9
   13    10     1    14     9
    1    14    17    18     9
    1    14    17    19     9
    1    14    17    25     9
   15    14    17    18     9
   15    14    17    19     9
   15    14    17    25     9
   16    14    17    18     9
   16    14    17    19     9
   16    14    17    25     9
   14    17    19    20     9
   18    17    19    20     9
   14    17    25    26     9
   14    17    25    27     9
   14    17    25    28     9
   18    17    25    26     9
   18    17    25    27     9
   18    17    25    28     9
   19    17    25    26     9
   19    17    25    27     9
   19    17    25    28     9
   20    19    17    25     9
   17    19    20    21     9
   17    19    20    22     9
   19    20    22    23     9
   19    20    22    24     9
   19    20    22    34     9
   21    20    22    23     9
   21    20    22    24     9
   21    20    22    34     9
   20    22    34    35     9
   20    22    34    36     9
   20    22    34    37     9
   23    22    34    35     9
   23    22    34    36     9
   23    22    34    37     9
   24    22    34    35     9
   24    22    34    36     9
   24    22    34    37     9
   17    25    28    29     9
   26    25    28    29     9
   27    25    28    29     9
   25    28    29    30     9
   25    28    29    31     9
   28    29    31    32     9
   28    29    31    33     9
   28    29    31    79     9
   30    29    31    32     9
   30    29    31    33     9
   30    29    31    79     9
   29    31    79    80     9
   29    31    79    81     9
   29    31    79    82     9
   32    31    79    80     9
   32    31    79    81     9
   32    31    79    82     9
   33    31    79    80     9
   33    31    79    81     9
   33    31    79    82     9
   22    34    37    38     9
   22    34    37    39     9
   22    34    37    40     9
   35    34    37    38     9
   35    34    37    39     9
   35    34    37    40     9
   36    34    37    38     9
   36    34    37    39     9
   36    34    37    40     9
   34    37    40    41     9
   34    37    40    42     9
   34    37    40    43     9
   38    37    40    41     9
   38    37    40    42     9
   38    37    40    43     9
   39    37    40    41     9
   39    37    40    42     9
   39    37    40    43     9
   37    40    43    44     9
   37    40    43    45     9
   37    40    43    46     9
   41    40    43    44     9
   41    40    43    45     9
   41    40    43    46     9
   42    40    43    44     9
   42    40    43    45     9
   42    40    43    46     9
   40    43    46    47     9
   40    43    46    48     9
   40    43    46    49     9
   44    43    46    47     9
   44    43    46    48     9
   44    43    46    49     9
   45    43    46    47     9
   45    43    46    48     9
   45    43    46    49     9
   43    46    49    50     9
   43    46    49    51     9
   43    46    49    52     9
   47    46    49    50     9
   47    46    49    51     9
   47    46    49    52     9
   48    46    49    50     9
   48    46    49    51     9
   48    46    49    52     9
   46    49    52    53     9
   46    49    52    54     9
   50    49    52    53     9
   50    49    52    54     9
   51    49    52    53     9
   51    49    52    54     9
   49    52    54    55     9
   49    52    54    56     9
   53    52    54    55     9
   53    52    54    56     9
   52    54    56    57     9
   52    54    56    58     9
   52    54    56    59     9
   55    54    56    57     9
   55    54    56    58     9
   55    54    56    59     9
   54    56    59    60     9
   54    56    59    61     9
   57    56    59    60     9
   57    56    59    61     9
   58    56    59    60     9
   58    56    59    61     9
   56    59    61    62     9
   56    59    61    63     9
   60    59    61    62     9
   60    59    61    63     9
   59    61    63    64     9
   59    61    63    65     9
   59    61    63    66     9
   62    61    63    64     9
   62    61    63    65     9
   62    61    63    66     9
   61    63    66    67     9
   61    63    66    68     9
   61    63    66    69     9
   64    63    66    67     9
   64    63    66    68     9
   64    63    66    69     9
   65    63    66    67     9
   65    63    66    68     9
   65    63    66    69     9
   63    66    69    70     9
   63    66    69    71     9
   63    66    69    72     9
   67    66    69    70     9
   67    66    69    71     9
   67    66    69    72     9
   68    66    69    70     9
   68    66    69    71     9
   68    66    69    72     9
   66    69    72    73     9
   66    69    72    74     9
   66    69    72    75     9
   70    69    72    73     9
   70    69    72    74     9
   70    69    72    75     9
   71    69    72    73     9
   71    69    72    74     9
   71    69    72    75     9
   69    72    75    76     9
   69    72    75    77     9
   69    72    75    78     9
   73    72    75    76     9
   73    72    75    77     9
   73    72    75    78     9
   74    72    75    76     9
   74    72    75    77     9
   74    72    75    78     9
   31    79    82    83     9
   31    79    82    84     9
   31    79    82    85     9
   80    79    82    83     9
   80    79    82    84     9
   80    79    82    85     9
   81    79    82    83     9
   81    79    82    84     9
   81    79    82    85     9
   79    82    85    86     9
   79    82    85    87     9
   79    82    85    88     9
   83    82    85    86     9
   83    82    85    87     9
   83    82    85    88     9
   84    82    85    86     9
   84    82    85    87     9
   84    82    85    88     9
   82    85    88    89     9
   82    85    88    90     9
   82    85    88    91     9
   86    85    88    89     9
   86    85    88    90     9
   86    85    88    91     9
   87    85    88    89     9
   87    85    88    90     9
   87    85    88    91     9
   85    88    91    92     9
   85    88    91    93     9
   85    88    91    94     9
   89    88    91    92     9
   89    88    91    93     9
   89    88    91    94     9
   90    88    91    92     9
   90    88    91    93     9
   90    88    91    94     9
   88    91    94    95     9
   88    91    94    96     9
   88    91    94    97     9
   92    91    94    95     9
   92    91    94    96     9
   92    91    94    97     9
   93    91    94    95     9
   93    91    94    96     9
   93    91    94    97     9
   91    94    97    98     9
   91    94    97    99     9
   95    94    97    98     9
   95    94    97    99     9
   96    94    97    98     9
   96    94    97    99     9
   94    97    99   100     9
   94    97    99   101     9
   98    97    99   100     9
   98    97    99   101     9
   97    99   101   102     9
   97    99   101   103     9
   97    99   101   104     9
  100    99   101   102     9
  100    99   101   103     9
  100    99   101   104     9
   99   101   104   105     9
   99   101   104   106     9
  102   101   104   105     9
  102   101   104   106     9
  103   101   104   105     9
  103   101   104   106     9
  101   104   106   107     9
  101   104   106   108     9
  105   104   106   107     9
  105   104   106   108     9
  104   106   108   109     9
  104   106   108   110     9
  104   106   108   111     9
  107   106   108   109     9
  107   106   108   110     9
  107   106   108   111     9
  106   108   111   112     9
  106   108   111   113     9
  106   108   111   114     9
  109   108   111   112     9
  109   108   111   113     9
  109   108   111   114     9
  110   108   111   112     9
  110   108   111   113     9
  110   108   111   114     9
  108   111   114   115     9
  108   111   114   116     9
  108   111   114   117     9
  112   111   114   115     9
  112   111   114   116     9
  112   111   114   117     9
  113   111   114   115     9
  113   111   114   116     9
  113   111   114   117     9
  111   114   117   118     9
  111   114   117   119     9
  111   114   117   120     9
  115   114   117   118     9
  115   114   117   119     9
  115   114   117   120     9
  116   114   117   118     9
  116   114   117   119     9
  116   114   117   120     9
  114   117   120   121     9
  114   117   120   122     9
  114   117   120   123     9
  118   117   120   121     9
  118   117   120   122     9
  118   117   120   123     9
  119   117   120   121     9
  119   117   120   122     9
  119   117   120   123     9

[ dihedrals ]
; ai	aj	ak	al	funct	q0	cq
   20    19    22    21     2
   29    28    31    30     2

#ifdef POSRES
[ position_restraints ]
    1     1     0.0             0.0            POSRES_FC_LIPID
#endif

#ifdef DIHRES
[ dihedral_restraints ]
   14    25    17    19     1   -120.0      2.5       DIHRES_FC
   49    52    54    56     1      0.0      0.0       DIHRES_FC
   56    59    61    63     1      0.0      0.0       DIHRES_FC
   94    97    99   101     1      0.0      0.0       DIHRES_FC
  101   104   106   108     1      0.0      0.0       DIHRES_FC
#endif
