;;
;; Generated by CHARMM-GUI FF-Converter
;;
;; Correspondance:
;; jul316@lehigh.edu or wonpil@lehigh.edu
;;
;; GROMACS topology file for DMDMA
;;


[ moleculetype ]
; name	nrexcl
DMDMA	     3

[ atoms ]
; nr	type	resnr	residu	atom	cgnr	charge	mass
     1      NG301     99    DMDMA     N1      1    -0.630000    14.0070   ; qtot -0.630
     2     CG3AM0     99    DMDMA    CN1      2    -0.060000    12.0110   ; qtot -0.690
     3     HGAAM0     99    DMDMA   HN11      3     0.090000     1.0080   ; qtot -0.600
     4     HGAAM0     99    DMDMA   HN12      4     0.090000     1.0080   ; qtot -0.510
     5     HGAAM0     99    DMDMA   HN13      5     0.090000     1.0080   ; qtot -0.420
     6     CG3AM0     99    DMDMA    CN2      6    -0.060000    12.0110   ; qtot -0.480
     7     HGAAM0     99    DMDMA   HN21      7     0.090000     1.0080   ; qtot -0.390
     8     HGAAM0     99    DMDMA   HN22      8     0.090000     1.0080   ; qtot -0.300
     9     HGAAM0     99    DMDMA   HN23      9     0.090000     1.0080   ; qtot -0.210
    10      CG321     99    DMDMA     C1     10     0.030000    12.0110   ; qtot -0.180
    11       HGA2     99    DMDMA    H11     11     0.090000     1.0080   ; qtot -0.090
    12       HGA2     99    DMDMA    H12     12     0.090000     1.0080   ; qtot -0.000
    13      CG311     99    DMDMA     C2     13     0.130000    12.0110   ; qtot  0.130
    14       HGA1     99    DMDMA     HS     14     0.010000     1.0080   ; qtot  0.140
    15      OG301     99    DMDMA    O21     15    -0.560000    15.9994   ; qtot -0.420
    16       CTL2     99    DMDMA    C21     16     0.400000    12.0110   ; qtot -0.020
    17       HAL2     99    DMDMA    H1R     17     0.010000     1.0080   ; qtot -0.010
    18       HAL2     99    DMDMA    H1S     18     0.010000     1.0080   ; qtot -0.000
    19       CTL2     99    DMDMA    C22     19    -0.180000    12.0110   ; qtot -0.180
    20       HAL2     99    DMDMA    H2R     20     0.090000     1.0080   ; qtot -0.090
    21       HAL2     99    DMDMA    H2S     21     0.090000     1.0080   ; qtot -0.000
    22      CG321     99    DMDMA     C3     22     0.080000    12.0110   ; qtot  0.080
    23       HGA2     99    DMDMA     HX     23     0.020000     1.0080   ; qtot  0.100
    24       HGA2     99    DMDMA     HY     24     0.020000     1.0080   ; qtot  0.120
    25      OG301     99    DMDMA    O31     25    -0.560000    15.9994   ; qtot -0.440
    26       CTL2     99    DMDMA    C31     26     0.400000    12.0110   ; qtot -0.040
    27       HAL2     99    DMDMA    H1X     27     0.020000     1.0080   ; qtot -0.020
    28       HAL2     99    DMDMA    H1Y     28     0.020000     1.0080   ; qtot -0.000
    29       CTL2     99    DMDMA    C32     29    -0.180000    12.0110   ; qtot -0.180
    30       HAL2     99    DMDMA    H2X     30     0.090000     1.0080   ; qtot -0.090
    31       HAL2     99    DMDMA    H2Y     31     0.090000     1.0080   ; qtot -0.000
    32       CTL2     99    DMDMA    C23     32    -0.180000    12.0110   ; qtot -0.180
    33       HAL2     99    DMDMA    H3R     33     0.090000     1.0080   ; qtot -0.090
    34       HAL2     99    DMDMA    H3S     34     0.090000     1.0080   ; qtot -0.000
    35       CTL2     99    DMDMA    C24     35    -0.180000    12.0110   ; qtot -0.180
    36       HAL2     99    DMDMA    H4R     36     0.090000     1.0080   ; qtot -0.090
    37       HAL2     99    DMDMA    H4S     37     0.090000     1.0080   ; qtot -0.000
    38       CTL2     99    DMDMA    C25     38    -0.180000    12.0110   ; qtot -0.180
    39       HAL2     99    DMDMA    H5R     39     0.090000     1.0080   ; qtot -0.090
    40       HAL2     99    DMDMA    H5S     40     0.090000     1.0080   ; qtot -0.000
    41       CTL2     99    DMDMA    C26     41    -0.180000    12.0110   ; qtot -0.180
    42       HAL2     99    DMDMA    H6R     42     0.090000     1.0080   ; qtot -0.090
    43       HAL2     99    DMDMA    H6S     43     0.090000     1.0080   ; qtot -0.000
    44       CTL2     99    DMDMA    C27     44    -0.180000    12.0110   ; qtot -0.180
    45       HAL2     99    DMDMA    H7R     45     0.090000     1.0080   ; qtot -0.090
    46       HAL2     99    DMDMA    H7S     46     0.090000     1.0080   ; qtot -0.000
    47       CTL2     99    DMDMA    C28     47    -0.180000    12.0110   ; qtot -0.180
    48       HAL2     99    DMDMA    H8R     48     0.090000     1.0080   ; qtot -0.090
    49       HAL2     99    DMDMA    H8S     49     0.090000     1.0080   ; qtot -0.000
    50       CTL2     99    DMDMA    C29     50    -0.180000    12.0110   ; qtot -0.180
    51       HAL2     99    DMDMA    H9R     51     0.090000     1.0080   ; qtot -0.090
    52       HAL2     99    DMDMA    H9S     52     0.090000     1.0080   ; qtot -0.000
    53       CTL2     99    DMDMA   C210     53    -0.180000    12.0110   ; qtot -0.180
    54       HAL2     99    DMDMA   H10R     54     0.090000     1.0080   ; qtot -0.090
    55       HAL2     99    DMDMA   H10S     55     0.090000     1.0080   ; qtot -0.000
    56       CTL2     99    DMDMA   C211     56    -0.180000    12.0110   ; qtot -0.180
    57       HAL2     99    DMDMA   H11R     57     0.090000     1.0080   ; qtot -0.090
    58       HAL2     99    DMDMA   H11S     58     0.090000     1.0080   ; qtot -0.000
    59       CTL2     99    DMDMA   C212     59    -0.180000    12.0110   ; qtot -0.180
    60       HAL2     99    DMDMA   H12R     60     0.090000     1.0080   ; qtot -0.090
    61       HAL2     99    DMDMA   H12S     61     0.090000     1.0080   ; qtot -0.000
    62       CTL2     99    DMDMA   C213     62    -0.180000    12.0110   ; qtot -0.180
    63       HAL2     99    DMDMA   H13R     63     0.090000     1.0080   ; qtot -0.090
    64       HAL2     99    DMDMA   H13S     64     0.090000     1.0080   ; qtot -0.000
    65       CTL3     99    DMDMA   C214     65    -0.270000    12.0110   ; qtot -0.270
    66       HAL3     99    DMDMA   H14R     66     0.090000     1.0080   ; qtot -0.180
    67       HAL3     99    DMDMA   H14S     67     0.090000     1.0080   ; qtot -0.090
    68       HAL3     99    DMDMA   H14T     68     0.090000     1.0080   ; qtot -0.000
    69       CTL2     99    DMDMA    C33     69    -0.180000    12.0110   ; qtot -0.180
    70       HAL2     99    DMDMA    H3X     70     0.090000     1.0080   ; qtot -0.090
    71       HAL2     99    DMDMA    H3Y     71     0.090000     1.0080   ; qtot -0.000
    72       CTL2     99    DMDMA    C34     72    -0.180000    12.0110   ; qtot -0.180
    73       HAL2     99    DMDMA    H4X     73     0.090000     1.0080   ; qtot -0.090
    74       HAL2     99    DMDMA    H4Y     74     0.090000     1.0080   ; qtot -0.000
    75       CTL2     99    DMDMA    C35     75    -0.180000    12.0110   ; qtot -0.180
    76       HAL2     99    DMDMA    H5X     76     0.090000     1.0080   ; qtot -0.090
    77       HAL2     99    DMDMA    H5Y     77     0.090000     1.0080   ; qtot -0.000
    78       CTL2     99    DMDMA    C36     78    -0.180000    12.0110   ; qtot -0.180
    79       HAL2     99    DMDMA    H6X     79     0.090000     1.0080   ; qtot -0.090
    80       HAL2     99    DMDMA    H6Y     80     0.090000     1.0080   ; qtot -0.000
    81       CTL2     99    DMDMA    C37     81    -0.180000    12.0110   ; qtot -0.180
    82       HAL2     99    DMDMA    H7X     82     0.090000     1.0080   ; qtot -0.090
    83       HAL2     99    DMDMA    H7Y     83     0.090000     1.0080   ; qtot -0.000
    84       CTL2     99    DMDMA    C38     84    -0.180000    12.0110   ; qtot -0.180
    85       HAL2     99    DMDMA    H8X     85     0.090000     1.0080   ; qtot -0.090
    86       HAL2     99    DMDMA    H8Y     86     0.090000     1.0080   ; qtot -0.000
    87       CTL2     99    DMDMA    C39     87    -0.180000    12.0110   ; qtot -0.180
    88       HAL2     99    DMDMA    H9X     88     0.090000     1.0080   ; qtot -0.090
    89       HAL2     99    DMDMA    H9Y     89     0.090000     1.0080   ; qtot -0.000
    90       CTL2     99    DMDMA   C310     90    -0.180000    12.0110   ; qtot -0.180
    91       HAL2     99    DMDMA   H10X     91     0.090000     1.0080   ; qtot -0.090
    92       HAL2     99    DMDMA   H10Y     92     0.090000     1.0080   ; qtot -0.000
    93       CTL2     99    DMDMA   C311     93    -0.180000    12.0110   ; qtot -0.180
    94       HAL2     99    DMDMA   H11X     94     0.090000     1.0080   ; qtot -0.090
    95       HAL2     99    DMDMA   H11Y     95     0.090000     1.0080   ; qtot -0.000
    96       CTL2     99    DMDMA   C312     96    -0.180000    12.0110   ; qtot -0.180
    97       HAL2     99    DMDMA   H12X     97     0.090000     1.0080   ; qtot -0.090
    98       HAL2     99    DMDMA   H12Y     98     0.090000     1.0080   ; qtot -0.000
    99       CTL2     99    DMDMA   C313     99    -0.180000    12.0110   ; qtot -0.180
   100       HAL2     99    DMDMA   H13X    100     0.090000     1.0080   ; qtot -0.090
   101       HAL2     99    DMDMA   H13Y    101     0.090000     1.0080   ; qtot -0.000
   102       CTL3     99    DMDMA   C314    102    -0.270000    12.0110   ; qtot -0.270
   103       HAL3     99    DMDMA   H14X    103     0.090000     1.0080   ; qtot -0.180
   104       HAL3     99    DMDMA   H14Y    104     0.090000     1.0080   ; qtot -0.090
   105       HAL3     99    DMDMA   H14Z    105     0.090000     1.0080   ; qtot -0.000

[ bonds ]
; ai	aj	funct	b0	Kb
    1     2     1
    1     6     1
    1    10     1
    2     3     1
    2     4     1
    2     5     1
    6     7     1
    6     8     1
    6     9     1
   10    11     1
   10    12     1
   10    13     1
   13    14     1
   13    15     1
   13    22     1
   15    16     1
   16    17     1
   16    18     1
   16    19     1
   19    20     1
   19    21     1
   19    32     1
   22    23     1
   22    24     1
   22    25     1
   25    26     1
   26    27     1
   26    28     1
   26    29     1
   29    30     1
   29    31     1
   29    69     1
   32    33     1
   32    34     1
   32    35     1
   35    36     1
   35    37     1
   35    38     1
   38    39     1
   38    40     1
   38    41     1
   41    42     1
   41    43     1
   41    44     1
   44    45     1
   44    46     1
   44    47     1
   47    48     1
   47    49     1
   47    50     1
   50    51     1
   50    52     1
   50    53     1
   53    54     1
   53    55     1
   53    56     1
   56    57     1
   56    58     1
   56    59     1
   59    60     1
   59    61     1
   59    62     1
   62    63     1
   62    64     1
   62    65     1
   65    66     1
   65    67     1
   65    68     1
   69    70     1
   69    71     1
   69    72     1
   72    73     1
   72    74     1
   72    75     1
   75    76     1
   75    77     1
   75    78     1
   78    79     1
   78    80     1
   78    81     1
   81    82     1
   81    83     1
   81    84     1
   84    85     1
   84    86     1
   84    87     1
   87    88     1
   87    89     1
   87    90     1
   90    91     1
   90    92     1
   90    93     1
   93    94     1
   93    95     1
   93    96     1
   96    97     1
   96    98     1
   96    99     1
   99   100     1
   99   101     1
   99   102     1
  102   103     1
  102   104     1
  102   105     1

[ pairs ]
; ai	aj	funct	c6	c12 or
; ai	aj	funct	fudgeQQ	q1	q2	c6	c12
    1    14     1
    1    15     1
    1    22     1
    2     7     1
    2     8     1
    2     9     1
    2    11     1
    2    12     1
    2    13     1
    3     6     1
    3    10     1
    4     6     1
    4    10     1
    5     6     1
    5    10     1
    6    11     1
    6    12     1
    6    13     1
    7    10     1
    8    10     1
    9    10     1
   10    16     1
   10    23     1
   10    24     1
   10    25     1
   11    14     1
   11    15     1
   11    22     1
   12    14     1
   12    15     1
   12    22     1
   13    17     1
   13    18     1
   13    19     1
   13    26     1
   14    16     1
   14    23     1
   14    24     1
   14    25     1
   15    20     1
   15    21     1
   15    23     1
   15    24     1
   15    25     1
   15    32     1
   16    22     1
   16    33     1
   16    34     1
   16    35     1
   17    20     1
   17    21     1
   17    32     1
   18    20     1
   18    21     1
   18    32     1
   19    36     1
   19    37     1
   19    38     1
   20    33     1
   20    34     1
   20    35     1
   21    33     1
   21    34     1
   21    35     1
   22    27     1
   22    28     1
   22    29     1
   23    26     1
   24    26     1
   25    30     1
   25    31     1
   25    69     1
   26    70     1
   26    71     1
   26    72     1
   27    30     1
   27    31     1
   27    69     1
   28    30     1
   28    31     1
   28    69     1
   29    73     1
   29    74     1
   29    75     1
   30    70     1
   30    71     1
   30    72     1
   31    70     1
   31    71     1
   31    72     1
   32    39     1
   32    40     1
   32    41     1
   33    36     1
   33    37     1
   33    38     1
   34    36     1
   34    37     1
   34    38     1
   35    42     1
   35    43     1
   35    44     1
   36    39     1
   36    40     1
   36    41     1
   37    39     1
   37    40     1
   37    41     1
   38    45     1
   38    46     1
   38    47     1
   39    42     1
   39    43     1
   39    44     1
   40    42     1
   40    43     1
   40    44     1
   41    48     1
   41    49     1
   41    50     1
   42    45     1
   42    46     1
   42    47     1
   43    45     1
   43    46     1
   43    47     1
   44    51     1
   44    52     1
   44    53     1
   45    48     1
   45    49     1
   45    50     1
   46    48     1
   46    49     1
   46    50     1
   47    54     1
   47    55     1
   47    56     1
   48    51     1
   48    52     1
   48    53     1
   49    51     1
   49    52     1
   49    53     1
   50    57     1
   50    58     1
   50    59     1
   51    54     1
   51    55     1
   51    56     1
   52    54     1
   52    55     1
   52    56     1
   53    60     1
   53    61     1
   53    62     1
   54    57     1
   54    58     1
   54    59     1
   55    57     1
   55    58     1
   55    59     1
   56    63     1
   56    64     1
   56    65     1
   57    60     1
   57    61     1
   57    62     1
   58    60     1
   58    61     1
   58    62     1
   59    66     1
   59    67     1
   59    68     1
   60    63     1
   60    64     1
   60    65     1
   61    63     1
   61    64     1
   61    65     1
   63    66     1
   63    67     1
   63    68     1
   64    66     1
   64    67     1
   64    68     1
   69    76     1
   69    77     1
   69    78     1
   70    73     1
   70    74     1
   70    75     1
   71    73     1
   71    74     1
   71    75     1
   72    79     1
   72    80     1
   72    81     1
   73    76     1
   73    77     1
   73    78     1
   74    76     1
   74    77     1
   74    78     1
   75    82     1
   75    83     1
   75    84     1
   76    79     1
   76    80     1
   76    81     1
   77    79     1
   77    80     1
   77    81     1
   78    85     1
   78    86     1
   78    87     1
   79    82     1
   79    83     1
   79    84     1
   80    82     1
   80    83     1
   80    84     1
   81    88     1
   81    89     1
   81    90     1
   82    85     1
   82    86     1
   82    87     1
   83    85     1
   83    86     1
   83    87     1
   84    91     1
   84    92     1
   84    93     1
   85    88     1
   85    89     1
   85    90     1
   86    88     1
   86    89     1
   86    90     1
   87    94     1
   87    95     1
   87    96     1
   88    91     1
   88    92     1
   88    93     1
   89    91     1
   89    92     1
   89    93     1
   90    97     1
   90    98     1
   90    99     1
   91    94     1
   91    95     1
   91    96     1
   92    94     1
   92    95     1
   92    96     1
   93   100     1
   93   101     1
   93   102     1
   94    97     1
   94    98     1
   94    99     1
   95    97     1
   95    98     1
   95    99     1
   96   103     1
   96   104     1
   96   105     1
   97   100     1
   97   101     1
   97   102     1
   98   100     1
   98   101     1
   98   102     1
  100   103     1
  100   104     1
  100   105     1
  101   103     1
  101   104     1
  101   105     1

[ angles ] 
; ai	aj	ak	funct	th0	cth	S0	Kub
    2     1     6     5
    2     1    10     5
    6     1    10     5
    1     2     3     5
    1     2     4     5
    1     2     5     5
    3     2     4     5
    3     2     5     5
    4     2     5     5
    1     6     7     5
    1     6     8     5
    1     6     9     5
    7     6     8     5
    7     6     9     5
    8     6     9     5
    1    10    11     5
    1    10    12     5
    1    10    13     5
   11    10    12     5
   11    10    13     5
   12    10    13     5
   10    13    14     5
   10    13    15     5
   10    13    22     5
   14    13    15     5
   14    13    22     5
   15    13    22     5
   13    15    16     5
   15    16    17     5
   15    16    18     5
   15    16    19     5
   17    16    18     5
   17    16    19     5
   18    16    19     5
   16    19    20     5
   16    19    21     5
   16    19    32     5
   20    19    21     5
   20    19    32     5
   21    19    32     5
   13    22    23     5
   13    22    24     5
   13    22    25     5
   23    22    24     5
   23    22    25     5
   24    22    25     5
   22    25    26     5
   25    26    27     5
   25    26    28     5
   25    26    29     5
   27    26    28     5
   27    26    29     5
   28    26    29     5
   26    29    30     5
   26    29    31     5
   26    29    69     5
   30    29    31     5
   30    29    69     5
   31    29    69     5
   19    32    33     5
   19    32    34     5
   19    32    35     5
   33    32    34     5
   33    32    35     5
   34    32    35     5
   32    35    36     5
   32    35    37     5
   32    35    38     5
   36    35    37     5
   36    35    38     5
   37    35    38     5
   35    38    39     5
   35    38    40     5
   35    38    41     5
   39    38    40     5
   39    38    41     5
   40    38    41     5
   38    41    42     5
   38    41    43     5
   38    41    44     5
   42    41    43     5
   42    41    44     5
   43    41    44     5
   41    44    45     5
   41    44    46     5
   41    44    47     5
   45    44    46     5
   45    44    47     5
   46    44    47     5
   44    47    48     5
   44    47    49     5
   44    47    50     5
   48    47    49     5
   48    47    50     5
   49    47    50     5
   47    50    51     5
   47    50    52     5
   47    50    53     5
   51    50    52     5
   51    50    53     5
   52    50    53     5
   50    53    54     5
   50    53    55     5
   50    53    56     5
   54    53    55     5
   54    53    56     5
   55    53    56     5
   53    56    57     5
   53    56    58     5
   53    56    59     5
   57    56    58     5
   57    56    59     5
   58    56    59     5
   56    59    60     5
   56    59    61     5
   56    59    62     5
   60    59    61     5
   60    59    62     5
   61    59    62     5
   59    62    63     5
   59    62    64     5
   59    62    65     5
   63    62    64     5
   63    62    65     5
   64    62    65     5
   62    65    66     5
   62    65    67     5
   62    65    68     5
   66    65    67     5
   66    65    68     5
   67    65    68     5
   29    69    70     5
   29    69    71     5
   29    69    72     5
   70    69    71     5
   70    69    72     5
   71    69    72     5
   69    72    73     5
   69    72    74     5
   69    72    75     5
   73    72    74     5
   73    72    75     5
   74    72    75     5
   72    75    76     5
   72    75    77     5
   72    75    78     5
   76    75    77     5
   76    75    78     5
   77    75    78     5
   75    78    79     5
   75    78    80     5
   75    78    81     5
   79    78    80     5
   79    78    81     5
   80    78    81     5
   78    81    82     5
   78    81    83     5
   78    81    84     5
   82    81    83     5
   82    81    84     5
   83    81    84     5
   81    84    85     5
   81    84    86     5
   81    84    87     5
   85    84    86     5
   85    84    87     5
   86    84    87     5
   84    87    88     5
   84    87    89     5
   84    87    90     5
   88    87    89     5
   88    87    90     5
   89    87    90     5
   87    90    91     5
   87    90    92     5
   87    90    93     5
   91    90    92     5
   91    90    93     5
   92    90    93     5
   90    93    94     5
   90    93    95     5
   90    93    96     5
   94    93    95     5
   94    93    96     5
   95    93    96     5
   93    96    97     5
   93    96    98     5
   93    96    99     5
   97    96    98     5
   97    96    99     5
   98    96    99     5
   96    99   100     5
   96    99   101     5
   96    99   102     5
  100    99   101     5
  100    99   102     5
  101    99   102     5
   99   102   103     5
   99   102   104     5
   99   102   105     5
  103   102   104     5
  103   102   105     5
  104   102   105     5

[ dihedrals ]
; ai	aj	ak	al	funct	phi0	cp	mult
    2     1     6     7     9
    2     1     6     8     9
    2     1     6     9     9
    2     1    10    11     9
    2     1    10    12     9
    2     1    10    13     9
    6     1    10    11     9
    6     1    10    12     9
    6     1    10    13     9
    3     2     1     6     9
    3     2     1    10     9
    4     2     1     6     9
    4     2     1    10     9
    5     2     1     6     9
    5     2     1    10     9
    7     6     1    10     9
    8     6     1    10     9
    9     6     1    10     9
    1    10    13    14     9
    1    10    13    15     9
    1    10    13    22     9
   11    10    13    14     9
   11    10    13    15     9
   11    10    13    22     9
   12    10    13    14     9
   12    10    13    15     9
   12    10    13    22     9
   10    13    15    16     9
   14    13    15    16     9
   10    13    22    23     9
   10    13    22    24     9
   10    13    22    25     9
   14    13    22    23     9
   14    13    22    24     9
   14    13    22    25     9
   15    13    22    23     9
   15    13    22    24     9
   15    13    22    25     9
   16    15    13    22     9
   13    15    16    17     9
   13    15    16    18     9
   13    15    16    19     9
   15    16    19    20     9
   15    16    19    21     9
   15    16    19    32     9
   17    16    19    20     9
   17    16    19    21     9
   17    16    19    32     9
   18    16    19    20     9
   18    16    19    21     9
   18    16    19    32     9
   16    19    32    33     9
   16    19    32    34     9
   16    19    32    35     9
   20    19    32    33     9
   20    19    32    34     9
   20    19    32    35     9
   21    19    32    33     9
   21    19    32    34     9
   21    19    32    35     9
   13    22    25    26     9
   23    22    25    26     9
   24    22    25    26     9
   22    25    26    27     9
   22    25    26    28     9
   22    25    26    29     9
   25    26    29    30     9
   25    26    29    31     9
   25    26    29    69     9
   27    26    29    30     9
   27    26    29    31     9
   27    26    29    69     9
   28    26    29    30     9
   28    26    29    31     9
   28    26    29    69     9
   26    29    69    70     9
   26    29    69    71     9
   26    29    69    72     9
   30    29    69    70     9
   30    29    69    71     9
   30    29    69    72     9
   31    29    69    70     9
   31    29    69    71     9
   31    29    69    72     9
   19    32    35    36     9
   19    32    35    37     9
   19    32    35    38     9
   33    32    35    36     9
   33    32    35    37     9
   33    32    35    38     9
   34    32    35    36     9
   34    32    35    37     9
   34    32    35    38     9
   32    35    38    39     9
   32    35    38    40     9
   32    35    38    41     9
   36    35    38    39     9
   36    35    38    40     9
   36    35    38    41     9
   37    35    38    39     9
   37    35    38    40     9
   37    35    38    41     9
   35    38    41    42     9
   35    38    41    43     9
   35    38    41    44     9
   39    38    41    42     9
   39    38    41    43     9
   39    38    41    44     9
   40    38    41    42     9
   40    38    41    43     9
   40    38    41    44     9
   38    41    44    45     9
   38    41    44    46     9
   38    41    44    47     9
   42    41    44    45     9
   42    41    44    46     9
   42    41    44    47     9
   43    41    44    45     9
   43    41    44    46     9
   43    41    44    47     9
   41    44    47    48     9
   41    44    47    49     9
   41    44    47    50     9
   45    44    47    48     9
   45    44    47    49     9
   45    44    47    50     9
   46    44    47    48     9
   46    44    47    49     9
   46    44    47    50     9
   44    47    50    51     9
   44    47    50    52     9
   44    47    50    53     9
   48    47    50    51     9
   48    47    50    52     9
   48    47    50    53     9
   49    47    50    51     9
   49    47    50    52     9
   49    47    50    53     9
   47    50    53    54     9
   47    50    53    55     9
   47    50    53    56     9
   51    50    53    54     9
   51    50    53    55     9
   51    50    53    56     9
   52    50    53    54     9
   52    50    53    55     9
   52    50    53    56     9
   50    53    56    57     9
   50    53    56    58     9
   50    53    56    59     9
   54    53    56    57     9
   54    53    56    58     9
   54    53    56    59     9
   55    53    56    57     9
   55    53    56    58     9
   55    53    56    59     9
   53    56    59    60     9
   53    56    59    61     9
   53    56    59    62     9
   57    56    59    60     9
   57    56    59    61     9
   57    56    59    62     9
   58    56    59    60     9
   58    56    59    61     9
   58    56    59    62     9
   56    59    62    63     9
   56    59    62    64     9
   56    59    62    65     9
   60    59    62    63     9
   60    59    62    64     9
   60    59    62    65     9
   61    59    62    63     9
   61    59    62    64     9
   61    59    62    65     9
   59    62    65    66     9
   59    62    65    67     9
   59    62    65    68     9
   63    62    65    66     9
   63    62    65    67     9
   63    62    65    68     9
   64    62    65    66     9
   64    62    65    67     9
   64    62    65    68     9
   29    69    72    73     9
   29    69    72    74     9
   29    69    72    75     9
   70    69    72    73     9
   70    69    72    74     9
   70    69    72    75     9
   71    69    72    73     9
   71    69    72    74     9
   71    69    72    75     9
   69    72    75    76     9
   69    72    75    77     9
   69    72    75    78     9
   73    72    75    76     9
   73    72    75    77     9
   73    72    75    78     9
   74    72    75    76     9
   74    72    75    77     9
   74    72    75    78     9
   72    75    78    79     9
   72    75    78    80     9
   72    75    78    81     9
   76    75    78    79     9
   76    75    78    80     9
   76    75    78    81     9
   77    75    78    79     9
   77    75    78    80     9
   77    75    78    81     9
   75    78    81    82     9
   75    78    81    83     9
   75    78    81    84     9
   79    78    81    82     9
   79    78    81    83     9
   79    78    81    84     9
   80    78    81    82     9
   80    78    81    83     9
   80    78    81    84     9
   78    81    84    85     9
   78    81    84    86     9
   78    81    84    87     9
   82    81    84    85     9
   82    81    84    86     9
   82    81    84    87     9
   83    81    84    85     9
   83    81    84    86     9
   83    81    84    87     9
   81    84    87    88     9
   81    84    87    89     9
   81    84    87    90     9
   85    84    87    88     9
   85    84    87    89     9
   85    84    87    90     9
   86    84    87    88     9
   86    84    87    89     9
   86    84    87    90     9
   84    87    90    91     9
   84    87    90    92     9
   84    87    90    93     9
   88    87    90    91     9
   88    87    90    92     9
   88    87    90    93     9
   89    87    90    91     9
   89    87    90    92     9
   89    87    90    93     9
   87    90    93    94     9
   87    90    93    95     9
   87    90    93    96     9
   91    90    93    94     9
   91    90    93    95     9
   91    90    93    96     9
   92    90    93    94     9
   92    90    93    95     9
   92    90    93    96     9
   90    93    96    97     9
   90    93    96    98     9
   90    93    96    99     9
   94    93    96    97     9
   94    93    96    98     9
   94    93    96    99     9
   95    93    96    97     9
   95    93    96    98     9
   95    93    96    99     9
   93    96    99   100     9
   93    96    99   101     9
   93    96    99   102     9
   97    96    99   100     9
   97    96    99   101     9
   97    96    99   102     9
   98    96    99   100     9
   98    96    99   101     9
   98    96    99   102     9
   96    99   102   103     9
   96    99   102   104     9
   96    99   102   105     9
  100    99   102   103     9
  100    99   102   104     9
  100    99   102   105     9
  101    99   102   103     9
  101    99   102   104     9
  101    99   102   105     9

#ifdef POSRES
[ position_restraints ]
    1     1     0.0             0.0            POSRES_FC_LIPID
#endif

#ifdef DIHRES
[ dihedral_restraints ]
   10    22    13    15     1   -120.0      2.5       DIHRES_FC
#endif
