;;
;; Generated by CHARMM-GUI FF-Converter
;;
;; Correspondance:
;; jul316@lehigh.edu or wonpil@lehigh.edu
;;
;; GROMACS topology file for DMMC3
;;


[ moleculetype ]
; name	nrexcl
DMMC3	     3

[ atoms ]
; nr	type	resnr	residu	atom	cgnr	charge	mass
     1      NG301    166    DMMC3     N1      1    -0.630000    14.0070   ; qtot -0.630
     2     CG3AM0    166    DMMC3    CN1      2    -0.060000    12.0110   ; qtot -0.690
     3     HGAAM0    166    DMMC3   HN11      3     0.090000     1.0080   ; qtot -0.600
     4     HGAAM0    166    DMMC3   HN12      4     0.090000     1.0080   ; qtot -0.510
     5     HGAAM0    166    DMMC3   HN13      5     0.090000     1.0080   ; qtot -0.420
     6     CG3AM0    166    DMMC3    CN2      6    -0.060000    12.0110   ; qtot -0.480
     7     HGAAM0    166    DMMC3   HN21      7     0.090000     1.0080   ; qtot -0.390
     8     HGAAM0    166    DMMC3   HN22      8     0.090000     1.0080   ; qtot -0.300
     9     HGAAM0    166    DMMC3   HN23      9     0.090000     1.0080   ; qtot -0.210
    10      CG321    166    DMMC3     C1     10     0.030000    12.0110   ; qtot -0.180
    11       HGA2    166    DMMC3    H11     11     0.090000     1.0080   ; qtot -0.090
    12       HGA2    166    DMMC3    H12     12     0.090000     1.0080   ; qtot -0.000
    13      CG321    166    DMMC3     C2     13    -0.180000    12.0110   ; qtot -0.180
    14       HGA2    166    DMMC3    H21     14     0.090000     1.0080   ; qtot -0.090
    15       HGA2    166    DMMC3    H22     15     0.090000     1.0080   ; qtot -0.000
    16       CTL2    166    DMMC3     C3     16    -0.220000    12.0110   ; qtot -0.220
    17       HAL2    166    DMMC3    H31     17     0.090000     1.0080   ; qtot -0.130
    18       HAL2    166    DMMC3    H32     18     0.090000     1.0080   ; qtot -0.040
    19        OSL    166    DMMC3     O1     19    -0.490000    15.9994   ; qtot -0.530
    20         CL    166    DMMC3     C4     20     0.900000    12.0110   ; qtot  0.370
    21        OBL    166    DMMC3     O2     21    -0.630000    15.9994   ; qtot -0.260
    22       CTL1    166    DMMC3     C5     22     0.170000    12.0110   ; qtot -0.090
    23       HAL1    166    DMMC3     H5     23     0.090000     1.0080   ; qtot  0.000
    24       CTL2    166    DMMC3    C11     24    -0.180000    12.0110   ; qtot -0.180
    25       HAL2    166    DMMC3   H11R     25     0.090000     1.0080   ; qtot -0.090
    26       HAL2    166    DMMC3   H11S     26     0.090000     1.0080   ; qtot  0.000
    27       CTL2    166    DMMC3    C12     27    -0.180000    12.0110   ; qtot -0.180
    28       HAL2    166    DMMC3   H12R     28     0.090000     1.0080   ; qtot -0.090
    29       HAL2    166    DMMC3   H12S     29     0.090000     1.0080   ; qtot  0.000
    30       CTL2    166    DMMC3    C13     30    -0.180000    12.0110   ; qtot -0.180
    31       HAL2    166    DMMC3   H13R     31     0.090000     1.0080   ; qtot -0.090
    32       HAL2    166    DMMC3   H13S     32     0.090000     1.0080   ; qtot  0.000
    33       CTL2    166    DMMC3    C14     33    -0.180000    12.0110   ; qtot -0.180
    34       HAL2    166    DMMC3   H14R     34     0.090000     1.0080   ; qtot -0.090
    35       HAL2    166    DMMC3   H14S     35     0.090000     1.0080   ; qtot  0.000
    36       CTL2    166    DMMC3    C15     36    -0.180000    12.0110   ; qtot -0.180
    37       HAL2    166    DMMC3   H15R     37     0.090000     1.0080   ; qtot -0.090
    38       HAL2    166    DMMC3   H15S     38     0.090000     1.0080   ; qtot  0.000
    39       CTL2    166    DMMC3    C16     39    -0.180000    12.0110   ; qtot -0.180
    40       HAL2    166    DMMC3   H16R     40     0.090000     1.0080   ; qtot -0.090
    41       HAL2    166    DMMC3   H16S     41     0.090000     1.0080   ; qtot  0.000
    42       CTL2    166    DMMC3    C17     42    -0.180000    12.0110   ; qtot -0.180
    43       HAL2    166    DMMC3   H17R     43     0.090000     1.0080   ; qtot -0.090
    44       HAL2    166    DMMC3   H17S     44     0.090000     1.0080   ; qtot  0.000
    45       CTL2    166    DMMC3    C18     45    -0.180000    12.0110   ; qtot -0.180
    46       HAL2    166    DMMC3   H18R     46     0.090000     1.0080   ; qtot -0.090
    47       HAL2    166    DMMC3   H18S     47     0.090000     1.0080   ; qtot  0.000
    48       CTL2    166    DMMC3    C19     48    -0.180000    12.0110   ; qtot -0.180
    49       HAL2    166    DMMC3   H19R     49     0.090000     1.0080   ; qtot -0.090
    50       HAL2    166    DMMC3   H19S     50     0.090000     1.0080   ; qtot  0.000
    51       CTL2    166    DMMC3   C110     51    -0.180000    12.0110   ; qtot -0.180
    52       HAL2    166    DMMC3  H110R     52     0.090000     1.0080   ; qtot -0.090
    53       HAL2    166    DMMC3  H110S     53     0.090000     1.0080   ; qtot  0.000
    54       CTL2    166    DMMC3   C111     54    -0.180000    12.0110   ; qtot -0.180
    55       HAL2    166    DMMC3  H111R     55     0.090000     1.0080   ; qtot -0.090
    56       HAL2    166    DMMC3  H111S     56     0.090000     1.0080   ; qtot  0.000
    57       CTL2    166    DMMC3   C112     57    -0.180000    12.0110   ; qtot -0.180
    58       HAL2    166    DMMC3  H112R     58     0.090000     1.0080   ; qtot -0.090
    59       HAL2    166    DMMC3  H112S     59     0.090000     1.0080   ; qtot  0.000
    60       CTL2    166    DMMC3   C113     60    -0.180000    12.0110   ; qtot -0.180
    61       HAL2    166    DMMC3  H113R     61     0.090000     1.0080   ; qtot -0.090
    62       HAL2    166    DMMC3  H113S     62     0.090000     1.0080   ; qtot  0.000
    63       CTL3    166    DMMC3   C114     63    -0.270000    12.0110   ; qtot -0.270
    64       HAL3    166    DMMC3  H114R     64     0.090000     1.0080   ; qtot -0.180
    65       HAL3    166    DMMC3  H114S     65     0.090000     1.0080   ; qtot -0.090
    66       HAL3    166    DMMC3  H114T     66     0.090000     1.0080   ; qtot -0.000
    67       CTL2    166    DMMC3    C21     67    -0.180000    12.0110   ; qtot -0.180
    68       HAL2    166    DMMC3   H21R     68     0.090000     1.0080   ; qtot -0.090
    69       HAL2    166    DMMC3   H21S     69     0.090000     1.0080   ; qtot -0.000
    70       CTL2    166    DMMC3    C22     70    -0.180000    12.0110   ; qtot -0.180
    71       HAL2    166    DMMC3   H22R     71     0.090000     1.0080   ; qtot -0.090
    72       HAL2    166    DMMC3   H22S     72     0.090000     1.0080   ; qtot -0.000
    73       CTL2    166    DMMC3    C23     73    -0.180000    12.0110   ; qtot -0.180
    74       HAL2    166    DMMC3   H23R     74     0.090000     1.0080   ; qtot -0.090
    75       HAL2    166    DMMC3   H23S     75     0.090000     1.0080   ; qtot -0.000
    76       CTL2    166    DMMC3    C24     76    -0.180000    12.0110   ; qtot -0.180
    77       HAL2    166    DMMC3   H24R     77     0.090000     1.0080   ; qtot -0.090
    78       HAL2    166    DMMC3   H24S     78     0.090000     1.0080   ; qtot -0.000
    79       CTL2    166    DMMC3    C25     79    -0.180000    12.0110   ; qtot -0.180
    80       HAL2    166    DMMC3   H25R     80     0.090000     1.0080   ; qtot -0.090
    81       HAL2    166    DMMC3   H25S     81     0.090000     1.0080   ; qtot -0.000
    82       CTL2    166    DMMC3    C26     82    -0.180000    12.0110   ; qtot -0.180
    83       HAL2    166    DMMC3   H26R     83     0.090000     1.0080   ; qtot -0.090
    84       HAL2    166    DMMC3   H26S     84     0.090000     1.0080   ; qtot -0.000
    85       CTL2    166    DMMC3    C27     85    -0.180000    12.0110   ; qtot -0.180
    86       HAL2    166    DMMC3   H27R     86     0.090000     1.0080   ; qtot -0.090
    87       HAL2    166    DMMC3   H27S     87     0.090000     1.0080   ; qtot -0.000
    88       CTL2    166    DMMC3    C28     88    -0.180000    12.0110   ; qtot -0.180
    89       HAL2    166    DMMC3   H28R     89     0.090000     1.0080   ; qtot -0.090
    90       HAL2    166    DMMC3   H28S     90     0.090000     1.0080   ; qtot -0.000
    91       CTL2    166    DMMC3    C29     91    -0.180000    12.0110   ; qtot -0.180
    92       HAL2    166    DMMC3   H29R     92     0.090000     1.0080   ; qtot -0.090
    93       HAL2    166    DMMC3   H29S     93     0.090000     1.0080   ; qtot -0.000
    94       CTL2    166    DMMC3   C210     94    -0.180000    12.0110   ; qtot -0.180
    95       HAL2    166    DMMC3  H210R     95     0.090000     1.0080   ; qtot -0.090
    96       HAL2    166    DMMC3  H210S     96     0.090000     1.0080   ; qtot -0.000
    97       CTL2    166    DMMC3   C211     97    -0.180000    12.0110   ; qtot -0.180
    98       HAL2    166    DMMC3  H211R     98     0.090000     1.0080   ; qtot -0.090
    99       HAL2    166    DMMC3  H211S     99     0.090000     1.0080   ; qtot -0.000
   100       CTL2    166    DMMC3   C212    100    -0.180000    12.0110   ; qtot -0.180
   101       HAL2    166    DMMC3  H212R    101     0.090000     1.0080   ; qtot -0.090
   102       HAL2    166    DMMC3  H212S    102     0.090000     1.0080   ; qtot -0.000
   103       CTL2    166    DMMC3   C213    103    -0.180000    12.0110   ; qtot -0.180
   104       HAL2    166    DMMC3  H213R    104     0.090000     1.0080   ; qtot -0.090
   105       HAL2    166    DMMC3  H213S    105     0.090000     1.0080   ; qtot -0.000
   106       CTL3    166    DMMC3   C214    106    -0.270000    12.0110   ; qtot -0.270
   107       HAL3    166    DMMC3  H214R    107     0.090000     1.0080   ; qtot -0.180
   108       HAL3    166    DMMC3  H214S    108     0.090000     1.0080   ; qtot -0.090
   109       HAL3    166    DMMC3  H214T    109     0.090000     1.0080   ; qtot -0.000

[ bonds ]
; ai	aj	funct	b0	Kb
    1     2     1
    1     6     1
    1    10     1
    2     3     1
    2     4     1
    2     5     1
    6     7     1
    6     8     1
    6     9     1
   10    11     1
   10    12     1
   10    13     1
   13    14     1
   13    15     1
   13    16     1
   16    17     1
   16    18     1
   16    20     1
   20    19     1
   19    22     1
   20    21     1
   22    23     1
   22    24     1
   22    67     1
   24    25     1
   24    26     1
   24    27     1
   27    28     1
   27    29     1
   27    30     1
   30    31     1
   30    32     1
   30    33     1
   33    34     1
   33    35     1
   33    36     1
   36    37     1
   36    38     1
   36    39     1
   39    40     1
   39    41     1
   39    42     1
   42    43     1
   42    44     1
   42    45     1
   45    46     1
   45    47     1
   45    48     1
   48    49     1
   48    50     1
   48    51     1
   51    52     1
   51    53     1
   51    54     1
   54    55     1
   54    56     1
   54    57     1
   57    58     1
   57    59     1
   57    60     1
   60    61     1
   60    62     1
   60    63     1
   63    64     1
   63    65     1
   63    66     1
   67    68     1
   67    69     1
   67    70     1
   70    71     1
   70    72     1
   70    73     1
   73    74     1
   73    75     1
   73    76     1
   76    77     1
   76    78     1
   76    79     1
   79    80     1
   79    81     1
   79    82     1
   82    83     1
   82    84     1
   82    85     1
   85    86     1
   85    87     1
   85    88     1
   88    89     1
   88    90     1
   88    91     1
   91    92     1
   91    93     1
   91    94     1
   94    95     1
   94    96     1
   94    97     1
   97    98     1
   97    99     1
   97   100     1
  100   101     1
  100   102     1
  100   103     1
  103   104     1
  103   105     1
  103   106     1
  106   107     1
  106   108     1
  106   109     1

[ pairs ]
; ai	aj	funct	c6	c12 or
; ai	aj	funct	fudgeQQ	q1	q2	c6	c12
    1    14     1
    1    15     1
    1    16     1
    2     7     1
    2     8     1
    2     9     1
    2    11     1
    2    12     1
    2    13     1
    3     6     1
    3    10     1
    4     6     1
    4    10     1
    5     6     1
    5    10     1
    6    11     1
    6    12     1
    6    13     1
    7    10     1
    8    10     1
    9    10     1
   10    17     1
   10    18     1
   10    20     1
   11    14     1
   11    15     1
   11    16     1
   12    14     1
   12    15     1
   12    16     1
   13    19     1
   13    21     1
   14    17     1
   14    18     1
   14    20     1
   15    17     1
   15    18     1
   15    20     1
   16    22     1
   17    19     1
   17    21     1
   18    19     1
   18    21     1
   19    25     1
   19    26     1
   19    27     1
   19    68     1
   19    69     1
   19    70     1
   20    23     1
   20    24     1
   20    67     1
   21    22     1
   22    28     1
   22    29     1
   22    30     1
   22    71     1
   22    72     1
   22    73     1
   23    25     1
   23    26     1
   23    27     1
   23    68     1
   23    69     1
   23    70     1
   24    31     1
   24    32     1
   24    33     1
   24    68     1
   24    69     1
   24    70     1
   25    28     1
   25    29     1
   25    30     1
   25    67     1
   26    28     1
   26    29     1
   26    30     1
   26    67     1
   27    34     1
   27    35     1
   27    36     1
   27    67     1
   28    31     1
   28    32     1
   28    33     1
   29    31     1
   29    32     1
   29    33     1
   30    37     1
   30    38     1
   30    39     1
   31    34     1
   31    35     1
   31    36     1
   32    34     1
   32    35     1
   32    36     1
   33    40     1
   33    41     1
   33    42     1
   34    37     1
   34    38     1
   34    39     1
   35    37     1
   35    38     1
   35    39     1
   36    43     1
   36    44     1
   36    45     1
   37    40     1
   37    41     1
   37    42     1
   38    40     1
   38    41     1
   38    42     1
   39    46     1
   39    47     1
   39    48     1
   40    43     1
   40    44     1
   40    45     1
   41    43     1
   41    44     1
   41    45     1
   42    49     1
   42    50     1
   42    51     1
   43    46     1
   43    47     1
   43    48     1
   44    46     1
   44    47     1
   44    48     1
   45    52     1
   45    53     1
   45    54     1
   46    49     1
   46    50     1
   46    51     1
   47    49     1
   47    50     1
   47    51     1
   48    55     1
   48    56     1
   48    57     1
   49    52     1
   49    53     1
   49    54     1
   50    52     1
   50    53     1
   50    54     1
   51    58     1
   51    59     1
   51    60     1
   52    55     1
   52    56     1
   52    57     1
   53    55     1
   53    56     1
   53    57     1
   54    61     1
   54    62     1
   54    63     1
   55    58     1
   55    59     1
   55    60     1
   56    58     1
   56    59     1
   56    60     1
   57    64     1
   57    65     1
   57    66     1
   58    61     1
   58    62     1
   58    63     1
   59    61     1
   59    62     1
   59    63     1
   61    64     1
   61    65     1
   61    66     1
   62    64     1
   62    65     1
   62    66     1
   67    74     1
   67    75     1
   67    76     1
   68    71     1
   68    72     1
   68    73     1
   69    71     1
   69    72     1
   69    73     1
   70    77     1
   70    78     1
   70    79     1
   71    74     1
   71    75     1
   71    76     1
   72    74     1
   72    75     1
   72    76     1
   73    80     1
   73    81     1
   73    82     1
   74    77     1
   74    78     1
   74    79     1
   75    77     1
   75    78     1
   75    79     1
   76    83     1
   76    84     1
   76    85     1
   77    80     1
   77    81     1
   77    82     1
   78    80     1
   78    81     1
   78    82     1
   79    86     1
   79    87     1
   79    88     1
   80    83     1
   80    84     1
   80    85     1
   81    83     1
   81    84     1
   81    85     1
   82    89     1
   82    90     1
   82    91     1
   83    86     1
   83    87     1
   83    88     1
   84    86     1
   84    87     1
   84    88     1
   85    92     1
   85    93     1
   85    94     1
   86    89     1
   86    90     1
   86    91     1
   87    89     1
   87    90     1
   87    91     1
   88    95     1
   88    96     1
   88    97     1
   89    92     1
   89    93     1
   89    94     1
   90    92     1
   90    93     1
   90    94     1
   91    98     1
   91    99     1
   91   100     1
   92    95     1
   92    96     1
   92    97     1
   93    95     1
   93    96     1
   93    97     1
   94   101     1
   94   102     1
   94   103     1
   95    98     1
   95    99     1
   95   100     1
   96    98     1
   96    99     1
   96   100     1
   97   104     1
   97   105     1
   97   106     1
   98   101     1
   98   102     1
   98   103     1
   99   101     1
   99   102     1
   99   103     1
  100   107     1
  100   108     1
  100   109     1
  101   104     1
  101   105     1
  101   106     1
  102   104     1
  102   105     1
  102   106     1
  104   107     1
  104   108     1
  104   109     1
  105   107     1
  105   108     1
  105   109     1

[ angles ] 
; ai	aj	ak	funct	th0	cth	S0	Kub
    2     1     6     5
    2     1    10     5
    6     1    10     5
    1     2     3     5
    1     2     4     5
    1     2     5     5
    3     2     4     5
    3     2     5     5
    4     2     5     5
    1     6     7     5
    1     6     8     5
    1     6     9     5
    7     6     8     5
    7     6     9     5
    8     6     9     5
    1    10    11     5
    1    10    12     5
    1    10    13     5
   11    10    12     5
   11    10    13     5
   12    10    13     5
   10    13    14     5
   10    13    15     5
   10    13    16     5
   14    13    15     5
   14    13    16     5
   15    13    16     5
   13    16    17     5
   13    16    18     5
   13    16    20     5
   17    16    18     5
   17    16    20     5
   18    16    20     5
   20    19    22     5
   16    20    19     5
   16    20    21     5
   19    20    21     5
   19    22    23     5
   19    22    24     5
   19    22    67     5
   23    22    24     5
   23    22    67     5
   24    22    67     5
   22    24    25     5
   22    24    26     5
   22    24    27     5
   25    24    26     5
   25    24    27     5
   26    24    27     5
   24    27    28     5
   24    27    29     5
   24    27    30     5
   28    27    29     5
   28    27    30     5
   29    27    30     5
   27    30    31     5
   27    30    32     5
   27    30    33     5
   31    30    32     5
   31    30    33     5
   32    30    33     5
   30    33    34     5
   30    33    35     5
   30    33    36     5
   34    33    35     5
   34    33    36     5
   35    33    36     5
   33    36    37     5
   33    36    38     5
   33    36    39     5
   37    36    38     5
   37    36    39     5
   38    36    39     5
   36    39    40     5
   36    39    41     5
   36    39    42     5
   40    39    41     5
   40    39    42     5
   41    39    42     5
   39    42    43     5
   39    42    44     5
   39    42    45     5
   43    42    44     5
   43    42    45     5
   44    42    45     5
   42    45    46     5
   42    45    47     5
   42    45    48     5
   46    45    47     5
   46    45    48     5
   47    45    48     5
   45    48    49     5
   45    48    50     5
   45    48    51     5
   49    48    50     5
   49    48    51     5
   50    48    51     5
   48    51    52     5
   48    51    53     5
   48    51    54     5
   52    51    53     5
   52    51    54     5
   53    51    54     5
   51    54    55     5
   51    54    56     5
   51    54    57     5
   55    54    56     5
   55    54    57     5
   56    54    57     5
   54    57    58     5
   54    57    59     5
   54    57    60     5
   58    57    59     5
   58    57    60     5
   59    57    60     5
   57    60    61     5
   57    60    62     5
   57    60    63     5
   61    60    62     5
   61    60    63     5
   62    60    63     5
   60    63    64     5
   60    63    65     5
   60    63    66     5
   64    63    65     5
   64    63    66     5
   65    63    66     5
   22    67    68     5
   22    67    69     5
   22    67    70     5
   68    67    69     5
   68    67    70     5
   69    67    70     5
   67    70    71     5
   67    70    72     5
   67    70    73     5
   71    70    72     5
   71    70    73     5
   72    70    73     5
   70    73    74     5
   70    73    75     5
   70    73    76     5
   74    73    75     5
   74    73    76     5
   75    73    76     5
   73    76    77     5
   73    76    78     5
   73    76    79     5
   77    76    78     5
   77    76    79     5
   78    76    79     5
   76    79    80     5
   76    79    81     5
   76    79    82     5
   80    79    81     5
   80    79    82     5
   81    79    82     5
   79    82    83     5
   79    82    84     5
   79    82    85     5
   83    82    84     5
   83    82    85     5
   84    82    85     5
   82    85    86     5
   82    85    87     5
   82    85    88     5
   86    85    87     5
   86    85    88     5
   87    85    88     5
   85    88    89     5
   85    88    90     5
   85    88    91     5
   89    88    90     5
   89    88    91     5
   90    88    91     5
   88    91    92     5
   88    91    93     5
   88    91    94     5
   92    91    93     5
   92    91    94     5
   93    91    94     5
   91    94    95     5
   91    94    96     5
   91    94    97     5
   95    94    96     5
   95    94    97     5
   96    94    97     5
   94    97    98     5
   94    97    99     5
   94    97   100     5
   98    97    99     5
   98    97   100     5
   99    97   100     5
   97   100   101     5
   97   100   102     5
   97   100   103     5
  101   100   102     5
  101   100   103     5
  102   100   103     5
  100   103   104     5
  100   103   105     5
  100   103   106     5
  104   103   105     5
  104   103   106     5
  105   103   106     5
  103   106   107     5
  103   106   108     5
  103   106   109     5
  107   106   108     5
  107   106   109     5
  108   106   109     5

[ dihedrals ]
; ai	aj	ak	al	funct	phi0	cp	mult
    2     1     6     7     9
    2     1     6     8     9
    2     1     6     9     9
    2     1    10    11     9
    2     1    10    12     9
    2     1    10    13     9
    6     1    10    11     9
    6     1    10    12     9
    6     1    10    13     9
    3     2     1     6     9
    3     2     1    10     9
    4     2     1     6     9
    4     2     1    10     9
    5     2     1     6     9
    5     2     1    10     9
    7     6     1    10     9
    8     6     1    10     9
    9     6     1    10     9
    1    10    13    14     9
    1    10    13    15     9
    1    10    13    16     9
   11    10    13    14     9
   11    10    13    15     9
   11    10    13    16     9
   12    10    13    14     9
   12    10    13    15     9
   12    10    13    16     9
   10    13    16    17     9
   10    13    16    18     9
   10    13    16    20     9
   14    13    16    17     9
   14    13    16    18     9
   14    13    16    20     9
   15    13    16    17     9
   15    13    16    18     9
   15    13    16    20     9
   13    16    20    19     9
   13    16    20    21     9
   17    16    20    19     9
   17    16    20    21     9
   18    16    20    19     9
   18    16    20    21     9
   20    19    22    23     9
   20    19    22    24     9
   20    19    22    67     9
   16    20    19    22     9
   21    20    19    22     9
   19    22    24    25     9
   19    22    24    26     9
   19    22    24    27     9
   23    22    24    25     9
   23    22    24    26     9
   23    22    24    27     9
   19    22    67    68     9
   19    22    67    69     9
   19    22    67    70     9
   23    22    67    68     9
   23    22    67    69     9
   23    22    67    70     9
   24    22    67    68     9
   24    22    67    69     9
   24    22    67    70     9
   25    24    22    67     9
   26    24    22    67     9
   27    24    22    67     9
   22    24    27    28     9
   22    24    27    29     9
   22    24    27    30     9
   25    24    27    28     9
   25    24    27    29     9
   25    24    27    30     9
   26    24    27    28     9
   26    24    27    29     9
   26    24    27    30     9
   24    27    30    31     9
   24    27    30    32     9
   24    27    30    33     9
   28    27    30    31     9
   28    27    30    32     9
   28    27    30    33     9
   29    27    30    31     9
   29    27    30    32     9
   29    27    30    33     9
   27    30    33    34     9
   27    30    33    35     9
   27    30    33    36     9
   31    30    33    34     9
   31    30    33    35     9
   31    30    33    36     9
   32    30    33    34     9
   32    30    33    35     9
   32    30    33    36     9
   30    33    36    37     9
   30    33    36    38     9
   30    33    36    39     9
   34    33    36    37     9
   34    33    36    38     9
   34    33    36    39     9
   35    33    36    37     9
   35    33    36    38     9
   35    33    36    39     9
   33    36    39    40     9
   33    36    39    41     9
   33    36    39    42     9
   37    36    39    40     9
   37    36    39    41     9
   37    36    39    42     9
   38    36    39    40     9
   38    36    39    41     9
   38    36    39    42     9
   36    39    42    43     9
   36    39    42    44     9
   36    39    42    45     9
   40    39    42    43     9
   40    39    42    44     9
   40    39    42    45     9
   41    39    42    43     9
   41    39    42    44     9
   41    39    42    45     9
   39    42    45    46     9
   39    42    45    47     9
   39    42    45    48     9
   43    42    45    46     9
   43    42    45    47     9
   43    42    45    48     9
   44    42    45    46     9
   44    42    45    47     9
   44    42    45    48     9
   42    45    48    49     9
   42    45    48    50     9
   42    45    48    51     9
   46    45    48    49     9
   46    45    48    50     9
   46    45    48    51     9
   47    45    48    49     9
   47    45    48    50     9
   47    45    48    51     9
   45    48    51    52     9
   45    48    51    53     9
   45    48    51    54     9
   49    48    51    52     9
   49    48    51    53     9
   49    48    51    54     9
   50    48    51    52     9
   50    48    51    53     9
   50    48    51    54     9
   48    51    54    55     9
   48    51    54    56     9
   48    51    54    57     9
   52    51    54    55     9
   52    51    54    56     9
   52    51    54    57     9
   53    51    54    55     9
   53    51    54    56     9
   53    51    54    57     9
   51    54    57    58     9
   51    54    57    59     9
   51    54    57    60     9
   55    54    57    58     9
   55    54    57    59     9
   55    54    57    60     9
   56    54    57    58     9
   56    54    57    59     9
   56    54    57    60     9
   54    57    60    61     9
   54    57    60    62     9
   54    57    60    63     9
   58    57    60    61     9
   58    57    60    62     9
   58    57    60    63     9
   59    57    60    61     9
   59    57    60    62     9
   59    57    60    63     9
   57    60    63    64     9
   57    60    63    65     9
   57    60    63    66     9
   61    60    63    64     9
   61    60    63    65     9
   61    60    63    66     9
   62    60    63    64     9
   62    60    63    65     9
   62    60    63    66     9
   22    67    70    71     9
   22    67    70    72     9
   22    67    70    73     9
   68    67    70    71     9
   68    67    70    72     9
   68    67    70    73     9
   69    67    70    71     9
   69    67    70    72     9
   69    67    70    73     9
   67    70    73    74     9
   67    70    73    75     9
   67    70    73    76     9
   71    70    73    74     9
   71    70    73    75     9
   71    70    73    76     9
   72    70    73    74     9
   72    70    73    75     9
   72    70    73    76     9
   70    73    76    77     9
   70    73    76    78     9
   70    73    76    79     9
   74    73    76    77     9
   74    73    76    78     9
   74    73    76    79     9
   75    73    76    77     9
   75    73    76    78     9
   75    73    76    79     9
   73    76    79    80     9
   73    76    79    81     9
   73    76    79    82     9
   77    76    79    80     9
   77    76    79    81     9
   77    76    79    82     9
   78    76    79    80     9
   78    76    79    81     9
   78    76    79    82     9
   76    79    82    83     9
   76    79    82    84     9
   76    79    82    85     9
   80    79    82    83     9
   80    79    82    84     9
   80    79    82    85     9
   81    79    82    83     9
   81    79    82    84     9
   81    79    82    85     9
   79    82    85    86     9
   79    82    85    87     9
   79    82    85    88     9
   83    82    85    86     9
   83    82    85    87     9
   83    82    85    88     9
   84    82    85    86     9
   84    82    85    87     9
   84    82    85    88     9
   82    85    88    89     9
   82    85    88    90     9
   82    85    88    91     9
   86    85    88    89     9
   86    85    88    90     9
   86    85    88    91     9
   87    85    88    89     9
   87    85    88    90     9
   87    85    88    91     9
   85    88    91    92     9
   85    88    91    93     9
   85    88    91    94     9
   89    88    91    92     9
   89    88    91    93     9
   89    88    91    94     9
   90    88    91    92     9
   90    88    91    93     9
   90    88    91    94     9
   88    91    94    95     9
   88    91    94    96     9
   88    91    94    97     9
   92    91    94    95     9
   92    91    94    96     9
   92    91    94    97     9
   93    91    94    95     9
   93    91    94    96     9
   93    91    94    97     9
   91    94    97    98     9
   91    94    97    99     9
   91    94    97   100     9
   95    94    97    98     9
   95    94    97    99     9
   95    94    97   100     9
   96    94    97    98     9
   96    94    97    99     9
   96    94    97   100     9
   94    97   100   101     9
   94    97   100   102     9
   94    97   100   103     9
   98    97   100   101     9
   98    97   100   102     9
   98    97   100   103     9
   99    97   100   101     9
   99    97   100   102     9
   99    97   100   103     9
   97   100   103   104     9
   97   100   103   105     9
   97   100   103   106     9
  101   100   103   104     9
  101   100   103   105     9
  101   100   103   106     9
  102   100   103   104     9
  102   100   103   105     9
  102   100   103   106     9
  100   103   106   107     9
  100   103   106   108     9
  100   103   106   109     9
  104   103   106   107     9
  104   103   106   108     9
  104   103   106   109     9
  105   103   106   107     9
  105   103   106   108     9
  105   103   106   109     9

[ dihedrals ]
; ai	aj	ak	al	funct	q0	cq
   20    19    16    21     2

#ifdef POSRES
[ position_restraints ]
    1     1     0.0             0.0            POSRES_FC_LIPID
#endif

#ifdef DIHRES
[ dihedral_restraints ]
   19    24    22    67     1   -120.0      2.5       DIHRES_FC
#endif
