;;
;; Generated by CHARMM-GUI FF-Converter
;;
;; Correspondance:
;; jul316@lehigh.edu or wonpil@lehigh.edu
;;
;; GROMACS topology file for DMPCE
;;


[ moleculetype ]
; name	nrexcl
DMPCE	     3

[ atoms ]
; nr	type	resnr	residu	atom	cgnr	charge	mass
     1        NTL      8    DMPCE      N      1    -0.600000    14.0070   ; qtot -0.600
     2       CTL5      8    DMPCE    C13      2    -0.350000    12.0110   ; qtot -0.950
     3         HL      8    DMPCE   H13A      3     0.250000     1.0080   ; qtot -0.700
     4         HL      8    DMPCE   H13B      4     0.250000     1.0080   ; qtot -0.450
     5         HL      8    DMPCE   H13C      5     0.250000     1.0080   ; qtot -0.200
     6       CTL5      8    DMPCE    C14      6    -0.350000    12.0110   ; qtot -0.550
     7         HL      8    DMPCE   H14A      7     0.250000     1.0080   ; qtot -0.300
     8         HL      8    DMPCE   H14B      8     0.250000     1.0080   ; qtot -0.050
     9         HL      8    DMPCE   H14C      9     0.250000     1.0080   ; qtot  0.200
    10       CTL5      8    DMPCE    C15     10    -0.350000    12.0110   ; qtot -0.150
    11         HL      8    DMPCE   H15A     11     0.250000     1.0080   ; qtot  0.100
    12         HL      8    DMPCE   H15B     12     0.250000     1.0080   ; qtot  0.350
    13         HL      8    DMPCE   H15C     13     0.250000     1.0080   ; qtot  0.600
    14       CTL2      8    DMPCE    C12     14    -0.100000    12.0110   ; qtot  0.500
    15         HL      8    DMPCE   H12A     15     0.250000     1.0080   ; qtot  0.750
    16         HL      8    DMPCE   H12B     16     0.250000     1.0080   ; qtot  1.000
    17       CTL2      8    DMPCE    C11     17    -0.080000    12.0110   ; qtot  0.920
    18       HAL2      8    DMPCE   H11A     18     0.090000     1.0080   ; qtot  1.010
    19       HAL2      8    DMPCE   H11B     19     0.090000     1.0080   ; qtot  1.100
    20         PL      8    DMPCE      P     20     1.500000    30.9740   ; qtot  2.600
    21        O2L      8    DMPCE    O13     21    -0.780000    15.9994   ; qtot  1.820
    22        O2L      8    DMPCE    O14     22    -0.780000    15.9994   ; qtot  1.040
    23       OSLP      8    DMPCE    O11     23    -0.570000    15.9994   ; qtot  0.470
    24       OSLP      8    DMPCE    O12     24    -0.570000    15.9994   ; qtot -0.100
    25       CTL2      8    DMPCE     C1     25    -0.080000    12.0110   ; qtot -0.180
    26       HAL2      8    DMPCE     HA     26     0.090000     1.0080   ; qtot -0.090
    27       HAL2      8    DMPCE     HB     27     0.090000     1.0080   ; qtot  0.000
    28       CTL1      8    DMPCE     C2     28     0.130000    12.0110   ; qtot  0.130
    29       HAL1      8    DMPCE     HS     29     0.010000     1.0080   ; qtot  0.140
    30      OG301      8    DMPCE    O21     30    -0.560000    15.9994   ; qtot -0.420
    31       CTL2      8    DMPCE    C21     31     0.400000    12.0110   ; qtot -0.020
    32       HAL2      8    DMPCE    H1R     32     0.010000     1.0080   ; qtot -0.010
    33       HAL2      8    DMPCE    H1S     33     0.010000     1.0080   ; qtot  0.000
    34       CTL2      8    DMPCE    C22     34    -0.180000    12.0110   ; qtot -0.180
    35       HAL2      8    DMPCE    H2R     35     0.090000     1.0080   ; qtot -0.090
    36       HAL2      8    DMPCE    H2S     36     0.090000     1.0080   ; qtot  0.000
    37       CTL2      8    DMPCE     C3     37     0.080000    12.0110   ; qtot  0.080
    38       HAL2      8    DMPCE     HX     38     0.020000     1.0080   ; qtot  0.100
    39       HAL2      8    DMPCE     HY     39     0.020000     1.0080   ; qtot  0.120
    40      OG301      8    DMPCE    O31     40    -0.560000    15.9994   ; qtot -0.440
    41       CTL2      8    DMPCE    C31     41     0.400000    12.0110   ; qtot -0.040
    42       HAL2      8    DMPCE    H1X     42     0.020000     1.0080   ; qtot -0.020
    43       HAL2      8    DMPCE    H1Y     43     0.020000     1.0080   ; qtot  0.000
    44       CTL2      8    DMPCE    C32     44    -0.180000    12.0110   ; qtot -0.180
    45       HAL2      8    DMPCE    H2X     45     0.090000     1.0080   ; qtot -0.090
    46       HAL2      8    DMPCE    H2Y     46     0.090000     1.0080   ; qtot  0.000
    47       CTL2      8    DMPCE    C23     47    -0.180000    12.0110   ; qtot -0.180
    48       HAL2      8    DMPCE    H3R     48     0.090000     1.0080   ; qtot -0.090
    49       HAL2      8    DMPCE    H3S     49     0.090000     1.0080   ; qtot  0.000
    50       CTL2      8    DMPCE    C24     50    -0.180000    12.0110   ; qtot -0.180
    51       HAL2      8    DMPCE    H4R     51     0.090000     1.0080   ; qtot -0.090
    52       HAL2      8    DMPCE    H4S     52     0.090000     1.0080   ; qtot  0.000
    53       CTL2      8    DMPCE    C25     53    -0.180000    12.0110   ; qtot -0.180
    54       HAL2      8    DMPCE    H5R     54     0.090000     1.0080   ; qtot -0.090
    55       HAL2      8    DMPCE    H5S     55     0.090000     1.0080   ; qtot  0.000
    56       CTL2      8    DMPCE    C26     56    -0.180000    12.0110   ; qtot -0.180
    57       HAL2      8    DMPCE    H6R     57     0.090000     1.0080   ; qtot -0.090
    58       HAL2      8    DMPCE    H6S     58     0.090000     1.0080   ; qtot  0.000
    59       CTL2      8    DMPCE    C27     59    -0.180000    12.0110   ; qtot -0.180
    60       HAL2      8    DMPCE    H7R     60     0.090000     1.0080   ; qtot -0.090
    61       HAL2      8    DMPCE    H7S     61     0.090000     1.0080   ; qtot  0.000
    62       CTL2      8    DMPCE    C28     62    -0.180000    12.0110   ; qtot -0.180
    63       HAL2      8    DMPCE    H8R     63     0.090000     1.0080   ; qtot -0.090
    64       HAL2      8    DMPCE    H8S     64     0.090000     1.0080   ; qtot  0.000
    65       CTL2      8    DMPCE    C29     65    -0.180000    12.0110   ; qtot -0.180
    66       HAL2      8    DMPCE    H9R     66     0.090000     1.0080   ; qtot -0.090
    67       HAL2      8    DMPCE    H9S     67     0.090000     1.0080   ; qtot  0.000
    68       CTL2      8    DMPCE   C210     68    -0.180000    12.0110   ; qtot -0.180
    69       HAL2      8    DMPCE   H10R     69     0.090000     1.0080   ; qtot -0.090
    70       HAL2      8    DMPCE   H10S     70     0.090000     1.0080   ; qtot  0.000
    71       CTL2      8    DMPCE   C211     71    -0.180000    12.0110   ; qtot -0.180
    72       HAL2      8    DMPCE   H11R     72     0.090000     1.0080   ; qtot -0.090
    73       HAL2      8    DMPCE   H11S     73     0.090000     1.0080   ; qtot  0.000
    74       CTL2      8    DMPCE   C212     74    -0.180000    12.0110   ; qtot -0.180
    75       HAL2      8    DMPCE   H12R     75     0.090000     1.0080   ; qtot -0.090
    76       HAL2      8    DMPCE   H12S     76     0.090000     1.0080   ; qtot  0.000
    77       CTL2      8    DMPCE   C213     77    -0.180000    12.0110   ; qtot -0.180
    78       HAL2      8    DMPCE   H13R     78     0.090000     1.0080   ; qtot -0.090
    79       HAL2      8    DMPCE   H13S     79     0.090000     1.0080   ; qtot  0.000
    80       CTL3      8    DMPCE   C214     80    -0.270000    12.0110   ; qtot -0.270
    81       HAL3      8    DMPCE   H14R     81     0.090000     1.0080   ; qtot -0.180
    82       HAL3      8    DMPCE   H14S     82     0.090000     1.0080   ; qtot -0.090
    83       HAL3      8    DMPCE   H14T     83     0.090000     1.0080   ; qtot  0.000
    84       CTL2      8    DMPCE    C33     84    -0.180000    12.0110   ; qtot -0.180
    85       HAL2      8    DMPCE    H3X     85     0.090000     1.0080   ; qtot -0.090
    86       HAL2      8    DMPCE    H3Y     86     0.090000     1.0080   ; qtot  0.000
    87       CTL2      8    DMPCE    C34     87    -0.180000    12.0110   ; qtot -0.180
    88       HAL2      8    DMPCE    H4X     88     0.090000     1.0080   ; qtot -0.090
    89       HAL2      8    DMPCE    H4Y     89     0.090000     1.0080   ; qtot  0.000
    90       CTL2      8    DMPCE    C35     90    -0.180000    12.0110   ; qtot -0.180
    91       HAL2      8    DMPCE    H5X     91     0.090000     1.0080   ; qtot -0.090
    92       HAL2      8    DMPCE    H5Y     92     0.090000     1.0080   ; qtot  0.000
    93       CTL2      8    DMPCE    C36     93    -0.180000    12.0110   ; qtot -0.180
    94       HAL2      8    DMPCE    H6X     94     0.090000     1.0080   ; qtot -0.090
    95       HAL2      8    DMPCE    H6Y     95     0.090000     1.0080   ; qtot  0.000
    96       CTL2      8    DMPCE    C37     96    -0.180000    12.0110   ; qtot -0.180
    97       HAL2      8    DMPCE    H7X     97     0.090000     1.0080   ; qtot -0.090
    98       HAL2      8    DMPCE    H7Y     98     0.090000     1.0080   ; qtot  0.000
    99       CTL2      8    DMPCE    C38     99    -0.180000    12.0110   ; qtot -0.180
   100       HAL2      8    DMPCE    H8X    100     0.090000     1.0080   ; qtot -0.090
   101       HAL2      8    DMPCE    H8Y    101     0.090000     1.0080   ; qtot  0.000
   102       CTL2      8    DMPCE    C39    102    -0.180000    12.0110   ; qtot -0.180
   103       HAL2      8    DMPCE    H9X    103     0.090000     1.0080   ; qtot -0.090
   104       HAL2      8    DMPCE    H9Y    104     0.090000     1.0080   ; qtot  0.000
   105       CTL2      8    DMPCE   C310    105    -0.180000    12.0110   ; qtot -0.180
   106       HAL2      8    DMPCE   H10X    106     0.090000     1.0080   ; qtot -0.090
   107       HAL2      8    DMPCE   H10Y    107     0.090000     1.0080   ; qtot  0.000
   108       CTL2      8    DMPCE   C311    108    -0.180000    12.0110   ; qtot -0.180
   109       HAL2      8    DMPCE   H11X    109     0.090000     1.0080   ; qtot -0.090
   110       HAL2      8    DMPCE   H11Y    110     0.090000     1.0080   ; qtot  0.000
   111       CTL2      8    DMPCE   C312    111    -0.180000    12.0110   ; qtot -0.180
   112       HAL2      8    DMPCE   H12X    112     0.090000     1.0080   ; qtot -0.090
   113       HAL2      8    DMPCE   H12Y    113     0.090000     1.0080   ; qtot  0.000
   114       CTL2      8    DMPCE   C313    114    -0.180000    12.0110   ; qtot -0.180
   115       HAL2      8    DMPCE   H13X    115     0.090000     1.0080   ; qtot -0.090
   116       HAL2      8    DMPCE   H13Y    116     0.090000     1.0080   ; qtot  0.000
   117       CTL3      8    DMPCE   C314    117    -0.270000    12.0110   ; qtot -0.270
   118       HAL3      8    DMPCE   H14X    118     0.090000     1.0080   ; qtot -0.180
   119       HAL3      8    DMPCE   H14Y    119     0.090000     1.0080   ; qtot -0.090
   120       HAL3      8    DMPCE   H14Z    120     0.090000     1.0080   ; qtot  0.000

[ bonds ]
; ai	aj	funct	b0	Kb
    1     2     1
    1     6     1
    1    10     1
    1    14     1
    2     3     1
    2     4     1
    2     5     1
    6     7     1
    6     8     1
    6     9     1
   10    11     1
   10    12     1
   10    13     1
   14    15     1
   14    16     1
   14    17     1
   17    18     1
   17    19     1
   17    24     1
   20    21     1
   20    22     1
   20    23     1
   24    20     1
   25    23     1
   25    26     1
   25    27     1
   25    28     1
   28    29     1
   28    30     1
   28    37     1
   30    31     1
   31    32     1
   31    33     1
   31    34     1
   34    35     1
   34    36     1
   34    47     1
   37    38     1
   37    39     1
   37    40     1
   40    41     1
   41    42     1
   41    43     1
   41    44     1
   44    45     1
   44    46     1
   44    84     1
   47    48     1
   47    49     1
   47    50     1
   50    51     1
   50    52     1
   50    53     1
   53    54     1
   53    55     1
   53    56     1
   56    57     1
   56    58     1
   56    59     1
   59    60     1
   59    61     1
   59    62     1
   62    63     1
   62    64     1
   62    65     1
   65    66     1
   65    67     1
   65    68     1
   68    69     1
   68    70     1
   68    71     1
   71    72     1
   71    73     1
   71    74     1
   74    75     1
   74    76     1
   74    77     1
   77    78     1
   77    79     1
   77    80     1
   80    81     1
   80    82     1
   80    83     1
   84    85     1
   84    86     1
   84    87     1
   87    88     1
   87    89     1
   87    90     1
   90    91     1
   90    92     1
   90    93     1
   93    94     1
   93    95     1
   93    96     1
   96    97     1
   96    98     1
   96    99     1
   99   100     1
   99   101     1
   99   102     1
  102   103     1
  102   104     1
  102   105     1
  105   106     1
  105   107     1
  105   108     1
  108   109     1
  108   110     1
  108   111     1
  111   112     1
  111   113     1
  111   114     1
  114   115     1
  114   116     1
  114   117     1
  117   118     1
  117   119     1
  117   120     1

[ pairs ]
; ai	aj	funct	c6	c12 or
; ai	aj	funct	fudgeQQ	q1	q2	c6	c12
    1    18     1
    1    19     1
    1    24     1
    2     7     1
    2     8     1
    2     9     1
    2    11     1
    2    12     1
    2    13     1
    2    15     1
    2    16     1
    2    17     1
    3     6     1
    3    10     1
    3    14     1
    4     6     1
    4    10     1
    4    14     1
    5     6     1
    5    10     1
    5    14     1
    6    11     1
    6    12     1
    6    13     1
    6    15     1
    6    16     1
    6    17     1
    7    10     1
    7    14     1
    8    10     1
    8    14     1
    9    10     1
    9    14     1
   10    15     1
   10    16     1
   10    17     1
   11    14     1
   12    14     1
   13    14     1
   14    20     1
   15    18     1
   15    19     1
   15    24     1
   16    18     1
   16    19     1
   16    24     1
   17    21     1
   17    22     1
   17    23     1
   18    20     1
   19    20     1
   20    26     1
   20    27     1
   20    28     1
   21    25     1
   22    25     1
   23    29     1
   23    30     1
   23    37     1
   24    25     1
   25    31     1
   25    38     1
   25    39     1
   25    40     1
   26    29     1
   26    30     1
   26    37     1
   27    29     1
   27    30     1
   27    37     1
   28    32     1
   28    33     1
   28    34     1
   28    41     1
   29    31     1
   29    38     1
   29    39     1
   29    40     1
   30    35     1
   30    36     1
   30    38     1
   30    39     1
   30    40     1
   30    47     1
   31    37     1
   31    48     1
   31    49     1
   31    50     1
   32    35     1
   32    36     1
   32    47     1
   33    35     1
   33    36     1
   33    47     1
   34    51     1
   34    52     1
   34    53     1
   35    48     1
   35    49     1
   35    50     1
   36    48     1
   36    49     1
   36    50     1
   37    42     1
   37    43     1
   37    44     1
   38    41     1
   39    41     1
   40    45     1
   40    46     1
   40    84     1
   41    85     1
   41    86     1
   41    87     1
   42    45     1
   42    46     1
   42    84     1
   43    45     1
   43    46     1
   43    84     1
   44    88     1
   44    89     1
   44    90     1
   45    85     1
   45    86     1
   45    87     1
   46    85     1
   46    86     1
   46    87     1
   47    54     1
   47    55     1
   47    56     1
   48    51     1
   48    52     1
   48    53     1
   49    51     1
   49    52     1
   49    53     1
   50    57     1
   50    58     1
   50    59     1
   51    54     1
   51    55     1
   51    56     1
   52    54     1
   52    55     1
   52    56     1
   53    60     1
   53    61     1
   53    62     1
   54    57     1
   54    58     1
   54    59     1
   55    57     1
   55    58     1
   55    59     1
   56    63     1
   56    64     1
   56    65     1
   57    60     1
   57    61     1
   57    62     1
   58    60     1
   58    61     1
   58    62     1
   59    66     1
   59    67     1
   59    68     1
   60    63     1
   60    64     1
   60    65     1
   61    63     1
   61    64     1
   61    65     1
   62    69     1
   62    70     1
   62    71     1
   63    66     1
   63    67     1
   63    68     1
   64    66     1
   64    67     1
   64    68     1
   65    72     1
   65    73     1
   65    74     1
   66    69     1
   66    70     1
   66    71     1
   67    69     1
   67    70     1
   67    71     1
   68    75     1
   68    76     1
   68    77     1
   69    72     1
   69    73     1
   69    74     1
   70    72     1
   70    73     1
   70    74     1
   71    78     1
   71    79     1
   71    80     1
   72    75     1
   72    76     1
   72    77     1
   73    75     1
   73    76     1
   73    77     1
   74    81     1
   74    82     1
   74    83     1
   75    78     1
   75    79     1
   75    80     1
   76    78     1
   76    79     1
   76    80     1
   78    81     1
   78    82     1
   78    83     1
   79    81     1
   79    82     1
   79    83     1
   84    91     1
   84    92     1
   84    93     1
   85    88     1
   85    89     1
   85    90     1
   86    88     1
   86    89     1
   86    90     1
   87    94     1
   87    95     1
   87    96     1
   88    91     1
   88    92     1
   88    93     1
   89    91     1
   89    92     1
   89    93     1
   90    97     1
   90    98     1
   90    99     1
   91    94     1
   91    95     1
   91    96     1
   92    94     1
   92    95     1
   92    96     1
   93   100     1
   93   101     1
   93   102     1
   94    97     1
   94    98     1
   94    99     1
   95    97     1
   95    98     1
   95    99     1
   96   103     1
   96   104     1
   96   105     1
   97   100     1
   97   101     1
   97   102     1
   98   100     1
   98   101     1
   98   102     1
   99   106     1
   99   107     1
   99   108     1
  100   103     1
  100   104     1
  100   105     1
  101   103     1
  101   104     1
  101   105     1
  102   109     1
  102   110     1
  102   111     1
  103   106     1
  103   107     1
  103   108     1
  104   106     1
  104   107     1
  104   108     1
  105   112     1
  105   113     1
  105   114     1
  106   109     1
  106   110     1
  106   111     1
  107   109     1
  107   110     1
  107   111     1
  108   115     1
  108   116     1
  108   117     1
  109   112     1
  109   113     1
  109   114     1
  110   112     1
  110   113     1
  110   114     1
  111   118     1
  111   119     1
  111   120     1
  112   115     1
  112   116     1
  112   117     1
  113   115     1
  113   116     1
  113   117     1
  115   118     1
  115   119     1
  115   120     1
  116   118     1
  116   119     1
  116   120     1

[ angles ] 
; ai	aj	ak	funct	th0	cth	S0	Kub
    2     1     6     5
    2     1    10     5
    2     1    14     5
    6     1    10     5
    6     1    14     5
   10     1    14     5
    1     2     3     5
    1     2     4     5
    1     2     5     5
    3     2     4     5
    3     2     5     5
    4     2     5     5
    1     6     7     5
    1     6     8     5
    1     6     9     5
    7     6     8     5
    7     6     9     5
    8     6     9     5
    1    10    11     5
    1    10    12     5
    1    10    13     5
   11    10    12     5
   11    10    13     5
   12    10    13     5
    1    14    15     5
    1    14    16     5
    1    14    17     5
   15    14    16     5
   15    14    17     5
   16    14    17     5
   14    17    18     5
   14    17    19     5
   14    17    24     5
   18    17    19     5
   18    17    24     5
   19    17    24     5
   21    20    22     5
   21    20    23     5
   21    20    24     5
   22    20    23     5
   22    20    24     5
   23    20    24     5
   20    23    25     5
   17    24    20     5
   23    25    26     5
   23    25    27     5
   23    25    28     5
   26    25    27     5
   26    25    28     5
   27    25    28     5
   25    28    29     5
   25    28    30     5
   25    28    37     5
   29    28    30     5
   29    28    37     5
   30    28    37     5
   28    30    31     5
   30    31    32     5
   30    31    33     5
   30    31    34     5
   32    31    33     5
   32    31    34     5
   33    31    34     5
   31    34    35     5
   31    34    36     5
   31    34    47     5
   35    34    36     5
   35    34    47     5
   36    34    47     5
   28    37    38     5
   28    37    39     5
   28    37    40     5
   38    37    39     5
   38    37    40     5
   39    37    40     5
   37    40    41     5
   40    41    42     5
   40    41    43     5
   40    41    44     5
   42    41    43     5
   42    41    44     5
   43    41    44     5
   41    44    45     5
   41    44    46     5
   41    44    84     5
   45    44    46     5
   45    44    84     5
   46    44    84     5
   34    47    48     5
   34    47    49     5
   34    47    50     5
   48    47    49     5
   48    47    50     5
   49    47    50     5
   47    50    51     5
   47    50    52     5
   47    50    53     5
   51    50    52     5
   51    50    53     5
   52    50    53     5
   50    53    54     5
   50    53    55     5
   50    53    56     5
   54    53    55     5
   54    53    56     5
   55    53    56     5
   53    56    57     5
   53    56    58     5
   53    56    59     5
   57    56    58     5
   57    56    59     5
   58    56    59     5
   56    59    60     5
   56    59    61     5
   56    59    62     5
   60    59    61     5
   60    59    62     5
   61    59    62     5
   59    62    63     5
   59    62    64     5
   59    62    65     5
   63    62    64     5
   63    62    65     5
   64    62    65     5
   62    65    66     5
   62    65    67     5
   62    65    68     5
   66    65    67     5
   66    65    68     5
   67    65    68     5
   65    68    69     5
   65    68    70     5
   65    68    71     5
   69    68    70     5
   69    68    71     5
   70    68    71     5
   68    71    72     5
   68    71    73     5
   68    71    74     5
   72    71    73     5
   72    71    74     5
   73    71    74     5
   71    74    75     5
   71    74    76     5
   71    74    77     5
   75    74    76     5
   75    74    77     5
   76    74    77     5
   74    77    78     5
   74    77    79     5
   74    77    80     5
   78    77    79     5
   78    77    80     5
   79    77    80     5
   77    80    81     5
   77    80    82     5
   77    80    83     5
   81    80    82     5
   81    80    83     5
   82    80    83     5
   44    84    85     5
   44    84    86     5
   44    84    87     5
   85    84    86     5
   85    84    87     5
   86    84    87     5
   84    87    88     5
   84    87    89     5
   84    87    90     5
   88    87    89     5
   88    87    90     5
   89    87    90     5
   87    90    91     5
   87    90    92     5
   87    90    93     5
   91    90    92     5
   91    90    93     5
   92    90    93     5
   90    93    94     5
   90    93    95     5
   90    93    96     5
   94    93    95     5
   94    93    96     5
   95    93    96     5
   93    96    97     5
   93    96    98     5
   93    96    99     5
   97    96    98     5
   97    96    99     5
   98    96    99     5
   96    99   100     5
   96    99   101     5
   96    99   102     5
  100    99   101     5
  100    99   102     5
  101    99   102     5
   99   102   103     5
   99   102   104     5
   99   102   105     5
  103   102   104     5
  103   102   105     5
  104   102   105     5
  102   105   106     5
  102   105   107     5
  102   105   108     5
  106   105   107     5
  106   105   108     5
  107   105   108     5
  105   108   109     5
  105   108   110     5
  105   108   111     5
  109   108   110     5
  109   108   111     5
  110   108   111     5
  108   111   112     5
  108   111   113     5
  108   111   114     5
  112   111   113     5
  112   111   114     5
  113   111   114     5
  111   114   115     5
  111   114   116     5
  111   114   117     5
  115   114   116     5
  115   114   117     5
  116   114   117     5
  114   117   118     5
  114   117   119     5
  114   117   120     5
  118   117   119     5
  118   117   120     5
  119   117   120     5

[ dihedrals ]
; ai	aj	ak	al	funct	phi0	cp	mult
    2     1     6     7     9
    2     1     6     8     9
    2     1     6     9     9
    2     1    10    11     9
    2     1    10    12     9
    2     1    10    13     9
    6     1    10    11     9
    6     1    10    12     9
    6     1    10    13     9
    2     1    14    15     9
    2     1    14    16     9
    2     1    14    17     9
    6     1    14    15     9
    6     1    14    16     9
    6     1    14    17     9
   10     1    14    15     9
   10     1    14    16     9
   10     1    14    17     9
    3     2     1     6     9
    3     2     1    10     9
    3     2     1    14     9
    4     2     1     6     9
    4     2     1    10     9
    4     2     1    14     9
    5     2     1     6     9
    5     2     1    10     9
    5     2     1    14     9
    7     6     1    10     9
    7     6     1    14     9
    8     6     1    10     9
    8     6     1    14     9
    9     6     1    10     9
    9     6     1    14     9
   11    10     1    14     9
   12    10     1    14     9
   13    10     1    14     9
    1    14    17    18     9
    1    14    17    19     9
    1    14    17    24     9
   15    14    17    18     9
   15    14    17    19     9
   15    14    17    24     9
   16    14    17    18     9
   16    14    17    19     9
   16    14    17    24     9
   14    17    24    20     9
   18    17    24    20     9
   19    17    24    20     9
   21    20    23    25     9
   22    20    23    25     9
   24    20    23    25     9
   20    23    25    26     9
   20    23    25    27     9
   20    23    25    28     9
   17    24    20    21     9
   17    24    20    22     9
   17    24    20    23     9
   23    25    28    29     9
   23    25    28    30     9
   23    25    28    37     9
   26    25    28    29     9
   26    25    28    30     9
   26    25    28    37     9
   27    25    28    29     9
   27    25    28    30     9
   27    25    28    37     9
   25    28    30    31     9
   29    28    30    31     9
   25    28    37    38     9
   25    28    37    39     9
   25    28    37    40     9
   29    28    37    38     9
   29    28    37    39     9
   29    28    37    40     9
   30    28    37    38     9
   30    28    37    39     9
   30    28    37    40     9
   31    30    28    37     9
   28    30    31    32     9
   28    30    31    33     9
   28    30    31    34     9
   30    31    34    35     9
   30    31    34    36     9
   30    31    34    47     9
   32    31    34    35     9
   32    31    34    36     9
   32    31    34    47     9
   33    31    34    35     9
   33    31    34    36     9
   33    31    34    47     9
   31    34    47    48     9
   31    34    47    49     9
   31    34    47    50     9
   35    34    47    48     9
   35    34    47    49     9
   35    34    47    50     9
   36    34    47    48     9
   36    34    47    49     9
   36    34    47    50     9
   28    37    40    41     9
   38    37    40    41     9
   39    37    40    41     9
   37    40    41    42     9
   37    40    41    43     9
   37    40    41    44     9
   40    41    44    45     9
   40    41    44    46     9
   40    41    44    84     9
   42    41    44    45     9
   42    41    44    46     9
   42    41    44    84     9
   43    41    44    45     9
   43    41    44    46     9
   43    41    44    84     9
   41    44    84    85     9
   41    44    84    86     9
   41    44    84    87     9
   45    44    84    85     9
   45    44    84    86     9
   45    44    84    87     9
   46    44    84    85     9
   46    44    84    86     9
   46    44    84    87     9
   34    47    50    51     9
   34    47    50    52     9
   34    47    50    53     9
   48    47    50    51     9
   48    47    50    52     9
   48    47    50    53     9
   49    47    50    51     9
   49    47    50    52     9
   49    47    50    53     9
   47    50    53    54     9
   47    50    53    55     9
   47    50    53    56     9
   51    50    53    54     9
   51    50    53    55     9
   51    50    53    56     9
   52    50    53    54     9
   52    50    53    55     9
   52    50    53    56     9
   50    53    56    57     9
   50    53    56    58     9
   50    53    56    59     9
   54    53    56    57     9
   54    53    56    58     9
   54    53    56    59     9
   55    53    56    57     9
   55    53    56    58     9
   55    53    56    59     9
   53    56    59    60     9
   53    56    59    61     9
   53    56    59    62     9
   57    56    59    60     9
   57    56    59    61     9
   57    56    59    62     9
   58    56    59    60     9
   58    56    59    61     9
   58    56    59    62     9
   56    59    62    63     9
   56    59    62    64     9
   56    59    62    65     9
   60    59    62    63     9
   60    59    62    64     9
   60    59    62    65     9
   61    59    62    63     9
   61    59    62    64     9
   61    59    62    65     9
   59    62    65    66     9
   59    62    65    67     9
   59    62    65    68     9
   63    62    65    66     9
   63    62    65    67     9
   63    62    65    68     9
   64    62    65    66     9
   64    62    65    67     9
   64    62    65    68     9
   62    65    68    69     9
   62    65    68    70     9
   62    65    68    71     9
   66    65    68    69     9
   66    65    68    70     9
   66    65    68    71     9
   67    65    68    69     9
   67    65    68    70     9
   67    65    68    71     9
   65    68    71    72     9
   65    68    71    73     9
   65    68    71    74     9
   69    68    71    72     9
   69    68    71    73     9
   69    68    71    74     9
   70    68    71    72     9
   70    68    71    73     9
   70    68    71    74     9
   68    71    74    75     9
   68    71    74    76     9
   68    71    74    77     9
   72    71    74    75     9
   72    71    74    76     9
   72    71    74    77     9
   73    71    74    75     9
   73    71    74    76     9
   73    71    74    77     9
   71    74    77    78     9
   71    74    77    79     9
   71    74    77    80     9
   75    74    77    78     9
   75    74    77    79     9
   75    74    77    80     9
   76    74    77    78     9
   76    74    77    79     9
   76    74    77    80     9
   74    77    80    81     9
   74    77    80    82     9
   74    77    80    83     9
   78    77    80    81     9
   78    77    80    82     9
   78    77    80    83     9
   79    77    80    81     9
   79    77    80    82     9
   79    77    80    83     9
   44    84    87    88     9
   44    84    87    89     9
   44    84    87    90     9
   85    84    87    88     9
   85    84    87    89     9
   85    84    87    90     9
   86    84    87    88     9
   86    84    87    89     9
   86    84    87    90     9
   84    87    90    91     9
   84    87    90    92     9
   84    87    90    93     9
   88    87    90    91     9
   88    87    90    92     9
   88    87    90    93     9
   89    87    90    91     9
   89    87    90    92     9
   89    87    90    93     9
   87    90    93    94     9
   87    90    93    95     9
   87    90    93    96     9
   91    90    93    94     9
   91    90    93    95     9
   91    90    93    96     9
   92    90    93    94     9
   92    90    93    95     9
   92    90    93    96     9
   90    93    96    97     9
   90    93    96    98     9
   90    93    96    99     9
   94    93    96    97     9
   94    93    96    98     9
   94    93    96    99     9
   95    93    96    97     9
   95    93    96    98     9
   95    93    96    99     9
   93    96    99   100     9
   93    96    99   101     9
   93    96    99   102     9
   97    96    99   100     9
   97    96    99   101     9
   97    96    99   102     9
   98    96    99   100     9
   98    96    99   101     9
   98    96    99   102     9
   96    99   102   103     9
   96    99   102   104     9
   96    99   102   105     9
  100    99   102   103     9
  100    99   102   104     9
  100    99   102   105     9
  101    99   102   103     9
  101    99   102   104     9
  101    99   102   105     9
   99   102   105   106     9
   99   102   105   107     9
   99   102   105   108     9
  103   102   105   106     9
  103   102   105   107     9
  103   102   105   108     9
  104   102   105   106     9
  104   102   105   107     9
  104   102   105   108     9
  102   105   108   109     9
  102   105   108   110     9
  102   105   108   111     9
  106   105   108   109     9
  106   105   108   110     9
  106   105   108   111     9
  107   105   108   109     9
  107   105   108   110     9
  107   105   108   111     9
  105   108   111   112     9
  105   108   111   113     9
  105   108   111   114     9
  109   108   111   112     9
  109   108   111   113     9
  109   108   111   114     9
  110   108   111   112     9
  110   108   111   113     9
  110   108   111   114     9
  108   111   114   115     9
  108   111   114   116     9
  108   111   114   117     9
  112   111   114   115     9
  112   111   114   116     9
  112   111   114   117     9
  113   111   114   115     9
  113   111   114   116     9
  113   111   114   117     9
  111   114   117   118     9
  111   114   117   119     9
  111   114   117   120     9
  115   114   117   118     9
  115   114   117   119     9
  115   114   117   120     9
  116   114   117   118     9
  116   114   117   119     9
  116   114   117   120     9

#ifdef POSRES
[ position_restraints ]
   20     1     0.0             0.0            POSRES_FC_LIPID
#endif

#ifdef DIHRES
[ dihedral_restraints ]
   25    37    28    30     1   -120.0      2.5       DIHRES_FC
#endif
