;;
;; Generated by CHARMM-GUI FF-Converter
;;
;; Correspondance:
;; jul316@lehigh.edu or wonpil@lehigh.edu
;;
;; GROMACS topology file for DNGL
;;


[ moleculetype ]
; name	nrexcl
DNGL	     3

[ atoms ]
; nr	type	resnr	residu	atom	cgnr	charge	mass
     1       CTL2    154     DNGL     C1      1     0.050000    12.0110   ; qtot  0.050
     2       HAL2    154     DNGL     HA      2     0.090000     1.0080   ; qtot  0.140
     3       HAL2    154     DNGL     HB      3     0.090000     1.0080   ; qtot  0.230
     4        OHL    154     DNGL    O11      4    -0.650000    15.9994   ; qtot -0.420
     5        HOL    154     DNGL    HO1      5     0.420000     1.0080   ; qtot -0.000
     6       CTL1    154     DNGL     C2      6     0.170000    12.0110   ; qtot  0.170
     7       HAL1    154     DNGL     HS      7     0.090000     1.0080   ; qtot  0.260
     8        OSL    154     DNGL    O21      8    -0.490000    15.9994   ; qtot -0.230
     9         CL    154     DNGL    C21      9     0.900000    12.0110   ; qtot  0.670
    10        OBL    154     DNGL    O22     10    -0.630000    15.9994   ; qtot  0.040
    11       CTL2    154     DNGL    C22     11    -0.220000    12.0110   ; qtot -0.180
    12       HAL2    154     DNGL    H2R     12     0.090000     1.0080   ; qtot -0.090
    13       HAL2    154     DNGL    H2S     13     0.090000     1.0080   ; qtot -0.000
    14       CTL2    154     DNGL     C3     14     0.080000    12.0110   ; qtot  0.080
    15       HAL2    154     DNGL     HX     15     0.090000     1.0080   ; qtot  0.170
    16       HAL2    154     DNGL     HY     16     0.090000     1.0080   ; qtot  0.260
    17        OSL    154     DNGL    O31     17    -0.490000    15.9994   ; qtot -0.230
    18         CL    154     DNGL    C31     18     0.900000    12.0110   ; qtot  0.670
    19        OBL    154     DNGL    O32     19    -0.630000    15.9994   ; qtot  0.040
    20       CTL2    154     DNGL    C32     20    -0.220000    12.0110   ; qtot -0.180
    21       HAL2    154     DNGL    H2X     21     0.090000     1.0080   ; qtot -0.090
    22       HAL2    154     DNGL    H2Y     22     0.090000     1.0080   ; qtot -0.000
    23       CTL2    154     DNGL    C23     23    -0.180000    12.0110   ; qtot -0.180
    24       HAL2    154     DNGL    H3R     24     0.090000     1.0080   ; qtot -0.090
    25       HAL2    154     DNGL    H3S     25     0.090000     1.0080   ; qtot -0.000
    26       CTL2    154     DNGL    C24     26    -0.180000    12.0110   ; qtot -0.180
    27       HAL2    154     DNGL    H4R     27     0.090000     1.0080   ; qtot -0.090
    28       HAL2    154     DNGL    H4S     28     0.090000     1.0080   ; qtot -0.000
    29       CTL2    154     DNGL    C25     29    -0.180000    12.0110   ; qtot -0.180
    30       HAL2    154     DNGL    H5R     30     0.090000     1.0080   ; qtot -0.090
    31       HAL2    154     DNGL    H5S     31     0.090000     1.0080   ; qtot -0.000
    32       CTL2    154     DNGL    C26     32    -0.180000    12.0110   ; qtot -0.180
    33       HAL2    154     DNGL    H6R     33     0.090000     1.0080   ; qtot -0.090
    34       HAL2    154     DNGL    H6S     34     0.090000     1.0080   ; qtot -0.000
    35       CTL2    154     DNGL    C27     35    -0.180000    12.0110   ; qtot -0.180
    36       HAL2    154     DNGL    H7R     36     0.090000     1.0080   ; qtot -0.090
    37       HAL2    154     DNGL    H7S     37     0.090000     1.0080   ; qtot -0.000
    38       CTL2    154     DNGL    C28     38    -0.180000    12.0110   ; qtot -0.180
    39       HAL2    154     DNGL    H8R     39     0.090000     1.0080   ; qtot -0.090
    40       HAL2    154     DNGL    H8S     40     0.090000     1.0080   ; qtot -0.000
    41       CTL2    154     DNGL    C29     41    -0.180000    12.0110   ; qtot -0.180
    42       HAL2    154     DNGL    H9R     42     0.090000     1.0080   ; qtot -0.090
    43       HAL2    154     DNGL    H9S     43     0.090000     1.0080   ; qtot -0.000
    44       CTL2    154     DNGL   C210     44    -0.180000    12.0110   ; qtot -0.180
    45       HAL2    154     DNGL   H10R     45     0.090000     1.0080   ; qtot -0.090
    46       HAL2    154     DNGL   H10S     46     0.090000     1.0080   ; qtot -0.000
    47       CTL2    154     DNGL   C211     47    -0.180000    12.0110   ; qtot -0.180
    48       HAL2    154     DNGL   H11R     48     0.090000     1.0080   ; qtot -0.090
    49       HAL2    154     DNGL   H11S     49     0.090000     1.0080   ; qtot -0.000
    50       CTL2    154     DNGL   C212     50    -0.180000    12.0110   ; qtot -0.180
    51       HAL2    154     DNGL   H12R     51     0.090000     1.0080   ; qtot -0.090
    52       HAL2    154     DNGL   H12S     52     0.090000     1.0080   ; qtot -0.000
    53       CTL2    154     DNGL   C213     53    -0.180000    12.0110   ; qtot -0.180
    54       HAL2    154     DNGL   H13R     54     0.090000     1.0080   ; qtot -0.090
    55       HAL2    154     DNGL   H13S     55     0.090000     1.0080   ; qtot -0.000
    56       CTL2    154     DNGL   C214     56    -0.180000    12.0110   ; qtot -0.180
    57       HAL2    154     DNGL   H14R     57     0.090000     1.0080   ; qtot -0.090
    58       HAL2    154     DNGL   H14S     58     0.090000     1.0080   ; qtot -0.000
    59       CEL1    154     DNGL   C215     59    -0.150000    12.0110   ; qtot -0.150
    60       HEL1    154     DNGL   H15R     60     0.150000     1.0080   ; qtot -0.000
    61       CEL1    154     DNGL   C216     61    -0.150000    12.0110   ; qtot -0.150
    62       HEL1    154     DNGL   H16R     62     0.150000     1.0080   ; qtot -0.000
    63       CTL2    154     DNGL   C217     63    -0.180000    12.0110   ; qtot -0.180
    64       HAL2    154     DNGL   H17R     64     0.090000     1.0080   ; qtot -0.090
    65       HAL2    154     DNGL   H17S     65     0.090000     1.0080   ; qtot -0.000
    66       CTL2    154     DNGL   C218     66    -0.180000    12.0110   ; qtot -0.180
    67       HAL2    154     DNGL   H18R     67     0.090000     1.0080   ; qtot -0.090
    68       HAL2    154     DNGL   H18S     68     0.090000     1.0080   ; qtot -0.000
    69       CTL2    154     DNGL   C219     69    -0.180000    12.0110   ; qtot -0.180
    70       HAL2    154     DNGL   H19R     70     0.090000     1.0080   ; qtot -0.090
    71       HAL2    154     DNGL   H19S     71     0.090000     1.0080   ; qtot -0.000
    72       CTL2    154     DNGL   C220     72    -0.180000    12.0110   ; qtot -0.180
    73       HAL2    154     DNGL   H20R     73     0.090000     1.0080   ; qtot -0.090
    74       HAL2    154     DNGL   H20S     74     0.090000     1.0080   ; qtot -0.000
    75       CTL2    154     DNGL   C221     75    -0.180000    12.0110   ; qtot -0.180
    76       HAL2    154     DNGL   H21R     76     0.090000     1.0080   ; qtot -0.090
    77       HAL2    154     DNGL   H21S     77     0.090000     1.0080   ; qtot -0.000
    78       CTL2    154     DNGL   C222     78    -0.180000    12.0110   ; qtot -0.180
    79       HAL2    154     DNGL   H22R     79     0.090000     1.0080   ; qtot -0.090
    80       HAL2    154     DNGL   H22S     80     0.090000     1.0080   ; qtot -0.000
    81       CTL2    154     DNGL   C223     81    -0.180000    12.0110   ; qtot -0.180
    82       HAL2    154     DNGL   H23R     82     0.090000     1.0080   ; qtot -0.090
    83       HAL2    154     DNGL   H23S     83     0.090000     1.0080   ; qtot -0.000
    84       CTL3    154     DNGL   C224     84    -0.270000    12.0110   ; qtot -0.270
    85       HAL3    154     DNGL   H24R     85     0.090000     1.0080   ; qtot -0.180
    86       HAL3    154     DNGL   H24S     86     0.090000     1.0080   ; qtot -0.090
    87       HAL3    154     DNGL   H24T     87     0.090000     1.0080   ; qtot -0.000
    88       CTL2    154     DNGL    C33     88    -0.180000    12.0110   ; qtot -0.180
    89       HAL2    154     DNGL    H3X     89     0.090000     1.0080   ; qtot -0.090
    90       HAL2    154     DNGL    H3Y     90     0.090000     1.0080   ; qtot -0.000
    91       CTL2    154     DNGL    C34     91    -0.180000    12.0110   ; qtot -0.180
    92       HAL2    154     DNGL    H4X     92     0.090000     1.0080   ; qtot -0.090
    93       HAL2    154     DNGL    H4Y     93     0.090000     1.0080   ; qtot -0.000
    94       CTL2    154     DNGL    C35     94    -0.180000    12.0110   ; qtot -0.180
    95       HAL2    154     DNGL    H5X     95     0.090000     1.0080   ; qtot -0.090
    96       HAL2    154     DNGL    H5Y     96     0.090000     1.0080   ; qtot -0.000
    97       CTL2    154     DNGL    C36     97    -0.180000    12.0110   ; qtot -0.180
    98       HAL2    154     DNGL    H6X     98     0.090000     1.0080   ; qtot -0.090
    99       HAL2    154     DNGL    H6Y     99     0.090000     1.0080   ; qtot -0.000
   100       CTL2    154     DNGL    C37    100    -0.180000    12.0110   ; qtot -0.180
   101       HAL2    154     DNGL    H7X    101     0.090000     1.0080   ; qtot -0.090
   102       HAL2    154     DNGL    H7Y    102     0.090000     1.0080   ; qtot -0.000
   103       CTL2    154     DNGL    C38    103    -0.180000    12.0110   ; qtot -0.180
   104       HAL2    154     DNGL    H8X    104     0.090000     1.0080   ; qtot -0.090
   105       HAL2    154     DNGL    H8Y    105     0.090000     1.0080   ; qtot -0.000
   106       CTL2    154     DNGL    C39    106    -0.180000    12.0110   ; qtot -0.180
   107       HAL2    154     DNGL    H9X    107     0.090000     1.0080   ; qtot -0.090
   108       HAL2    154     DNGL    H9Y    108     0.090000     1.0080   ; qtot -0.000
   109       CTL2    154     DNGL   C310    109    -0.180000    12.0110   ; qtot -0.180
   110       HAL2    154     DNGL   H10X    110     0.090000     1.0080   ; qtot -0.090
   111       HAL2    154     DNGL   H10Y    111     0.090000     1.0080   ; qtot -0.000
   112       CTL2    154     DNGL   C311    112    -0.180000    12.0110   ; qtot -0.180
   113       HAL2    154     DNGL   H11X    113     0.090000     1.0080   ; qtot -0.090
   114       HAL2    154     DNGL   H11Y    114     0.090000     1.0080   ; qtot -0.000
   115       CTL2    154     DNGL   C312    115    -0.180000    12.0110   ; qtot -0.180
   116       HAL2    154     DNGL   H12X    116     0.090000     1.0080   ; qtot -0.090
   117       HAL2    154     DNGL   H12Y    117     0.090000     1.0080   ; qtot -0.000
   118       CTL2    154     DNGL   C313    118    -0.180000    12.0110   ; qtot -0.180
   119       HAL2    154     DNGL   H13X    119     0.090000     1.0080   ; qtot -0.090
   120       HAL2    154     DNGL   H13Y    120     0.090000     1.0080   ; qtot -0.000
   121       CTL2    154     DNGL   C314    121    -0.180000    12.0110   ; qtot -0.180
   122       HAL2    154     DNGL   H14X    122     0.090000     1.0080   ; qtot -0.090
   123       HAL2    154     DNGL   H14Y    123     0.090000     1.0080   ; qtot -0.000
   124       CEL1    154     DNGL   C315    124    -0.150000    12.0110   ; qtot -0.150
   125       HEL1    154     DNGL   H15X    125     0.150000     1.0080   ; qtot -0.000
   126       CEL1    154     DNGL   C316    126    -0.150000    12.0110   ; qtot -0.150
   127       HEL1    154     DNGL   H16X    127     0.150000     1.0080   ; qtot -0.000
   128       CTL2    154     DNGL   C317    128    -0.180000    12.0110   ; qtot -0.180
   129       HAL2    154     DNGL   H17X    129     0.090000     1.0080   ; qtot -0.090
   130       HAL2    154     DNGL   H17Y    130     0.090000     1.0080   ; qtot -0.000
   131       CTL2    154     DNGL   C318    131    -0.180000    12.0110   ; qtot -0.180
   132       HAL2    154     DNGL   H18X    132     0.090000     1.0080   ; qtot -0.090
   133       HAL2    154     DNGL   H18Y    133     0.090000     1.0080   ; qtot -0.000
   134       CTL2    154     DNGL   C319    134    -0.180000    12.0110   ; qtot -0.180
   135       HAL2    154     DNGL   H19X    135     0.090000     1.0080   ; qtot -0.090
   136       HAL2    154     DNGL   H19Y    136     0.090000     1.0080   ; qtot -0.000
   137       CTL2    154     DNGL   C320    137    -0.180000    12.0110   ; qtot -0.180
   138       HAL2    154     DNGL   H20X    138     0.090000     1.0080   ; qtot -0.090
   139       HAL2    154     DNGL   H20Y    139     0.090000     1.0080   ; qtot -0.000
   140       CTL2    154     DNGL   C321    140    -0.180000    12.0110   ; qtot -0.180
   141       HAL2    154     DNGL   H21X    141     0.090000     1.0080   ; qtot -0.090
   142       HAL2    154     DNGL   H21Y    142     0.090000     1.0080   ; qtot -0.000
   143       CTL2    154     DNGL   C322    143    -0.180000    12.0110   ; qtot -0.180
   144       HAL2    154     DNGL   H22X    144     0.090000     1.0080   ; qtot -0.090
   145       HAL2    154     DNGL   H22Y    145     0.090000     1.0080   ; qtot -0.000
   146       CTL2    154     DNGL   C323    146    -0.180000    12.0110   ; qtot -0.180
   147       HAL2    154     DNGL   H23X    147     0.090000     1.0080   ; qtot -0.090
   148       HAL2    154     DNGL   H23Y    148     0.090000     1.0080   ; qtot -0.000
   149       CTL3    154     DNGL   C324    149    -0.270000    12.0110   ; qtot -0.270
   150       HAL3    154     DNGL   H24X    150     0.090000     1.0080   ; qtot -0.180
   151       HAL3    154     DNGL   H24Y    151     0.090000     1.0080   ; qtot -0.090
   152       HAL3    154     DNGL   H24Z    152     0.090000     1.0080   ; qtot -0.000

[ bonds ]
; ai	aj	funct	b0	Kb
    1     2     1
    1     3     1
    1     4     1
    1     6     1
    4     5     1
    6     7     1
    6     8     1
    6    14     1
    8     9     1
    9    10     1
    9    11     1
   11    12     1
   11    13     1
   11    23     1
   14    15     1
   14    16     1
   14    17     1
   17    18     1
   18    19     1
   18    20     1
   20    21     1
   20    22     1
   20    88     1
   23    24     1
   23    25     1
   23    26     1
   26    27     1
   26    28     1
   26    29     1
   29    30     1
   29    31     1
   29    32     1
   32    33     1
   32    34     1
   32    35     1
   35    36     1
   35    37     1
   35    38     1
   38    39     1
   38    40     1
   38    41     1
   41    42     1
   41    43     1
   41    44     1
   44    45     1
   44    46     1
   44    47     1
   47    48     1
   47    49     1
   47    50     1
   50    51     1
   50    52     1
   50    53     1
   53    54     1
   53    55     1
   53    56     1
   56    57     1
   56    58     1
   56    59     1
   59    60     1
   59    61     1
   61    62     1
   61    63     1
   63    64     1
   63    65     1
   63    66     1
   66    67     1
   66    68     1
   66    69     1
   69    70     1
   69    71     1
   69    72     1
   72    73     1
   72    74     1
   72    75     1
   75    76     1
   75    77     1
   75    78     1
   78    79     1
   78    80     1
   78    81     1
   81    82     1
   81    83     1
   81    84     1
   84    85     1
   84    86     1
   84    87     1
   88    89     1
   88    90     1
   88    91     1
   91    92     1
   91    93     1
   91    94     1
   94    95     1
   94    96     1
   94    97     1
   97    98     1
   97    99     1
   97   100     1
  100   101     1
  100   102     1
  100   103     1
  103   104     1
  103   105     1
  103   106     1
  106   107     1
  106   108     1
  106   109     1
  109   110     1
  109   111     1
  109   112     1
  112   113     1
  112   114     1
  112   115     1
  115   116     1
  115   117     1
  115   118     1
  118   119     1
  118   120     1
  118   121     1
  121   122     1
  121   123     1
  121   124     1
  124   125     1
  124   126     1
  126   127     1
  126   128     1
  128   129     1
  128   130     1
  128   131     1
  131   132     1
  131   133     1
  131   134     1
  134   135     1
  134   136     1
  134   137     1
  137   138     1
  137   139     1
  137   140     1
  140   141     1
  140   142     1
  140   143     1
  143   144     1
  143   145     1
  143   146     1
  146   147     1
  146   148     1
  146   149     1
  149   150     1
  149   151     1
  149   152     1

[ pairs ]
; ai	aj	funct	c6	c12 or
; ai	aj	funct	fudgeQQ	q1	q2	c6	c12
    1     9     1
    1    15     1
    1    16     1
    1    17     1
    2     5     1
    2     7     1
    2     8     1
    2    14     1
    3     5     1
    3     7     1
    3     8     1
    3    14     1
    4     7     1
    4     8     1
    4    14     1
    5     6     1
    6    10     1
    6    11     1
    6    18     1
    7     9     1
    7    15     1
    7    16     1
    7    17     1
    8    12     1
    8    13     1
    8    15     1
    8    16     1
    8    17     1
    8    23     1
    9    14     1
    9    24     1
    9    25     1
    9    26     1
   10    12     1
   10    13     1
   10    23     1
   11    27     1
   11    28     1
   11    29     1
   12    24     1
   12    25     1
   12    26     1
   13    24     1
   13    25     1
   13    26     1
   14    19     1
   14    20     1
   15    18     1
   16    18     1
   17    21     1
   17    22     1
   17    88     1
   18    89     1
   18    90     1
   18    91     1
   19    21     1
   19    22     1
   19    88     1
   20    92     1
   20    93     1
   20    94     1
   21    89     1
   21    90     1
   21    91     1
   22    89     1
   22    90     1
   22    91     1
   23    30     1
   23    31     1
   23    32     1
   24    27     1
   24    28     1
   24    29     1
   25    27     1
   25    28     1
   25    29     1
   26    33     1
   26    34     1
   26    35     1
   27    30     1
   27    31     1
   27    32     1
   28    30     1
   28    31     1
   28    32     1
   29    36     1
   29    37     1
   29    38     1
   30    33     1
   30    34     1
   30    35     1
   31    33     1
   31    34     1
   31    35     1
   32    39     1
   32    40     1
   32    41     1
   33    36     1
   33    37     1
   33    38     1
   34    36     1
   34    37     1
   34    38     1
   35    42     1
   35    43     1
   35    44     1
   36    39     1
   36    40     1
   36    41     1
   37    39     1
   37    40     1
   37    41     1
   38    45     1
   38    46     1
   38    47     1
   39    42     1
   39    43     1
   39    44     1
   40    42     1
   40    43     1
   40    44     1
   41    48     1
   41    49     1
   41    50     1
   42    45     1
   42    46     1
   42    47     1
   43    45     1
   43    46     1
   43    47     1
   44    51     1
   44    52     1
   44    53     1
   45    48     1
   45    49     1
   45    50     1
   46    48     1
   46    49     1
   46    50     1
   47    54     1
   47    55     1
   47    56     1
   48    51     1
   48    52     1
   48    53     1
   49    51     1
   49    52     1
   49    53     1
   50    57     1
   50    58     1
   50    59     1
   51    54     1
   51    55     1
   51    56     1
   52    54     1
   52    55     1
   52    56     1
   53    60     1
   53    61     1
   54    57     1
   54    58     1
   54    59     1
   55    57     1
   55    58     1
   55    59     1
   56    62     1
   56    63     1
   57    60     1
   57    61     1
   58    60     1
   58    61     1
   59    64     1
   59    65     1
   59    66     1
   60    62     1
   60    63     1
   61    67     1
   61    68     1
   61    69     1
   62    64     1
   62    65     1
   62    66     1
   63    70     1
   63    71     1
   63    72     1
   64    67     1
   64    68     1
   64    69     1
   65    67     1
   65    68     1
   65    69     1
   66    73     1
   66    74     1
   66    75     1
   67    70     1
   67    71     1
   67    72     1
   68    70     1
   68    71     1
   68    72     1
   69    76     1
   69    77     1
   69    78     1
   70    73     1
   70    74     1
   70    75     1
   71    73     1
   71    74     1
   71    75     1
   72    79     1
   72    80     1
   72    81     1
   73    76     1
   73    77     1
   73    78     1
   74    76     1
   74    77     1
   74    78     1
   75    82     1
   75    83     1
   75    84     1
   76    79     1
   76    80     1
   76    81     1
   77    79     1
   77    80     1
   77    81     1
   78    85     1
   78    86     1
   78    87     1
   79    82     1
   79    83     1
   79    84     1
   80    82     1
   80    83     1
   80    84     1
   82    85     1
   82    86     1
   82    87     1
   83    85     1
   83    86     1
   83    87     1
   88    95     1
   88    96     1
   88    97     1
   89    92     1
   89    93     1
   89    94     1
   90    92     1
   90    93     1
   90    94     1
   91    98     1
   91    99     1
   91   100     1
   92    95     1
   92    96     1
   92    97     1
   93    95     1
   93    96     1
   93    97     1
   94   101     1
   94   102     1
   94   103     1
   95    98     1
   95    99     1
   95   100     1
   96    98     1
   96    99     1
   96   100     1
   97   104     1
   97   105     1
   97   106     1
   98   101     1
   98   102     1
   98   103     1
   99   101     1
   99   102     1
   99   103     1
  100   107     1
  100   108     1
  100   109     1
  101   104     1
  101   105     1
  101   106     1
  102   104     1
  102   105     1
  102   106     1
  103   110     1
  103   111     1
  103   112     1
  104   107     1
  104   108     1
  104   109     1
  105   107     1
  105   108     1
  105   109     1
  106   113     1
  106   114     1
  106   115     1
  107   110     1
  107   111     1
  107   112     1
  108   110     1
  108   111     1
  108   112     1
  109   116     1
  109   117     1
  109   118     1
  110   113     1
  110   114     1
  110   115     1
  111   113     1
  111   114     1
  111   115     1
  112   119     1
  112   120     1
  112   121     1
  113   116     1
  113   117     1
  113   118     1
  114   116     1
  114   117     1
  114   118     1
  115   122     1
  115   123     1
  115   124     1
  116   119     1
  116   120     1
  116   121     1
  117   119     1
  117   120     1
  117   121     1
  118   125     1
  118   126     1
  119   122     1
  119   123     1
  119   124     1
  120   122     1
  120   123     1
  120   124     1
  121   127     1
  121   128     1
  122   125     1
  122   126     1
  123   125     1
  123   126     1
  124   129     1
  124   130     1
  124   131     1
  125   127     1
  125   128     1
  126   132     1
  126   133     1
  126   134     1
  127   129     1
  127   130     1
  127   131     1
  128   135     1
  128   136     1
  128   137     1
  129   132     1
  129   133     1
  129   134     1
  130   132     1
  130   133     1
  130   134     1
  131   138     1
  131   139     1
  131   140     1
  132   135     1
  132   136     1
  132   137     1
  133   135     1
  133   136     1
  133   137     1
  134   141     1
  134   142     1
  134   143     1
  135   138     1
  135   139     1
  135   140     1
  136   138     1
  136   139     1
  136   140     1
  137   144     1
  137   145     1
  137   146     1
  138   141     1
  138   142     1
  138   143     1
  139   141     1
  139   142     1
  139   143     1
  140   147     1
  140   148     1
  140   149     1
  141   144     1
  141   145     1
  141   146     1
  142   144     1
  142   145     1
  142   146     1
  143   150     1
  143   151     1
  143   152     1
  144   147     1
  144   148     1
  144   149     1
  145   147     1
  145   148     1
  145   149     1
  147   150     1
  147   151     1
  147   152     1
  148   150     1
  148   151     1
  148   152     1

[ angles ] 
; ai	aj	ak	funct	th0	cth	S0	Kub
    2     1     3     5
    2     1     4     5
    2     1     6     5
    3     1     4     5
    3     1     6     5
    4     1     6     5
    1     4     5     5
    1     6     7     5
    1     6     8     5
    1     6    14     5
    7     6     8     5
    7     6    14     5
    8     6    14     5
    6     8     9     5
    8     9    10     5
    8     9    11     5
   10     9    11     5
    9    11    12     5
    9    11    13     5
    9    11    23     5
   12    11    13     5
   12    11    23     5
   13    11    23     5
    6    14    15     5
    6    14    16     5
    6    14    17     5
   15    14    16     5
   15    14    17     5
   16    14    17     5
   14    17    18     5
   17    18    19     5
   17    18    20     5
   19    18    20     5
   18    20    21     5
   18    20    22     5
   18    20    88     5
   21    20    22     5
   21    20    88     5
   22    20    88     5
   11    23    24     5
   11    23    25     5
   11    23    26     5
   24    23    25     5
   24    23    26     5
   25    23    26     5
   23    26    27     5
   23    26    28     5
   23    26    29     5
   27    26    28     5
   27    26    29     5
   28    26    29     5
   26    29    30     5
   26    29    31     5
   26    29    32     5
   30    29    31     5
   30    29    32     5
   31    29    32     5
   29    32    33     5
   29    32    34     5
   29    32    35     5
   33    32    34     5
   33    32    35     5
   34    32    35     5
   32    35    36     5
   32    35    37     5
   32    35    38     5
   36    35    37     5
   36    35    38     5
   37    35    38     5
   35    38    39     5
   35    38    40     5
   35    38    41     5
   39    38    40     5
   39    38    41     5
   40    38    41     5
   38    41    42     5
   38    41    43     5
   38    41    44     5
   42    41    43     5
   42    41    44     5
   43    41    44     5
   41    44    45     5
   41    44    46     5
   41    44    47     5
   45    44    46     5
   45    44    47     5
   46    44    47     5
   44    47    48     5
   44    47    49     5
   44    47    50     5
   48    47    49     5
   48    47    50     5
   49    47    50     5
   47    50    51     5
   47    50    52     5
   47    50    53     5
   51    50    52     5
   51    50    53     5
   52    50    53     5
   50    53    54     5
   50    53    55     5
   50    53    56     5
   54    53    55     5
   54    53    56     5
   55    53    56     5
   53    56    57     5
   53    56    58     5
   53    56    59     5
   57    56    58     5
   57    56    59     5
   58    56    59     5
   56    59    60     5
   56    59    61     5
   60    59    61     5
   59    61    62     5
   59    61    63     5
   62    61    63     5
   61    63    64     5
   61    63    65     5
   61    63    66     5
   64    63    65     5
   64    63    66     5
   65    63    66     5
   63    66    67     5
   63    66    68     5
   63    66    69     5
   67    66    68     5
   67    66    69     5
   68    66    69     5
   66    69    70     5
   66    69    71     5
   66    69    72     5
   70    69    71     5
   70    69    72     5
   71    69    72     5
   69    72    73     5
   69    72    74     5
   69    72    75     5
   73    72    74     5
   73    72    75     5
   74    72    75     5
   72    75    76     5
   72    75    77     5
   72    75    78     5
   76    75    77     5
   76    75    78     5
   77    75    78     5
   75    78    79     5
   75    78    80     5
   75    78    81     5
   79    78    80     5
   79    78    81     5
   80    78    81     5
   78    81    82     5
   78    81    83     5
   78    81    84     5
   82    81    83     5
   82    81    84     5
   83    81    84     5
   81    84    85     5
   81    84    86     5
   81    84    87     5
   85    84    86     5
   85    84    87     5
   86    84    87     5
   20    88    89     5
   20    88    90     5
   20    88    91     5
   89    88    90     5
   89    88    91     5
   90    88    91     5
   88    91    92     5
   88    91    93     5
   88    91    94     5
   92    91    93     5
   92    91    94     5
   93    91    94     5
   91    94    95     5
   91    94    96     5
   91    94    97     5
   95    94    96     5
   95    94    97     5
   96    94    97     5
   94    97    98     5
   94    97    99     5
   94    97   100     5
   98    97    99     5
   98    97   100     5
   99    97   100     5
   97   100   101     5
   97   100   102     5
   97   100   103     5
  101   100   102     5
  101   100   103     5
  102   100   103     5
  100   103   104     5
  100   103   105     5
  100   103   106     5
  104   103   105     5
  104   103   106     5
  105   103   106     5
  103   106   107     5
  103   106   108     5
  103   106   109     5
  107   106   108     5
  107   106   109     5
  108   106   109     5
  106   109   110     5
  106   109   111     5
  106   109   112     5
  110   109   111     5
  110   109   112     5
  111   109   112     5
  109   112   113     5
  109   112   114     5
  109   112   115     5
  113   112   114     5
  113   112   115     5
  114   112   115     5
  112   115   116     5
  112   115   117     5
  112   115   118     5
  116   115   117     5
  116   115   118     5
  117   115   118     5
  115   118   119     5
  115   118   120     5
  115   118   121     5
  119   118   120     5
  119   118   121     5
  120   118   121     5
  118   121   122     5
  118   121   123     5
  118   121   124     5
  122   121   123     5
  122   121   124     5
  123   121   124     5
  121   124   125     5
  121   124   126     5
  125   124   126     5
  124   126   127     5
  124   126   128     5
  127   126   128     5
  126   128   129     5
  126   128   130     5
  126   128   131     5
  129   128   130     5
  129   128   131     5
  130   128   131     5
  128   131   132     5
  128   131   133     5
  128   131   134     5
  132   131   133     5
  132   131   134     5
  133   131   134     5
  131   134   135     5
  131   134   136     5
  131   134   137     5
  135   134   136     5
  135   134   137     5
  136   134   137     5
  134   137   138     5
  134   137   139     5
  134   137   140     5
  138   137   139     5
  138   137   140     5
  139   137   140     5
  137   140   141     5
  137   140   142     5
  137   140   143     5
  141   140   142     5
  141   140   143     5
  142   140   143     5
  140   143   144     5
  140   143   145     5
  140   143   146     5
  144   143   145     5
  144   143   146     5
  145   143   146     5
  143   146   147     5
  143   146   148     5
  143   146   149     5
  147   146   148     5
  147   146   149     5
  148   146   149     5
  146   149   150     5
  146   149   151     5
  146   149   152     5
  150   149   151     5
  150   149   152     5
  151   149   152     5

[ dihedrals ]
; ai	aj	ak	al	funct	phi0	cp	mult
    2     1     4     5     9
    3     1     4     5     9
    2     1     6     7     9
    2     1     6     8     9
    2     1     6    14     9
    3     1     6     7     9
    3     1     6     8     9
    3     1     6    14     9
    4     1     6     7     9
    4     1     6     8     9
    4     1     6    14     9
    5     4     1     6     9
    1     6     8     9     9
    7     6     8     9     9
    1     6    14    15     9
    1     6    14    16     9
    1     6    14    17     9
    7     6    14    15     9
    7     6    14    16     9
    7     6    14    17     9
    8     6    14    15     9
    8     6    14    16     9
    8     6    14    17     9
    9     8     6    14     9
    6     8     9    10     9
    6     8     9    11     9
    8     9    11    12     9
    8     9    11    13     9
    8     9    11    23     9
   10     9    11    12     9
   10     9    11    13     9
   10     9    11    23     9
    9    11    23    24     9
    9    11    23    25     9
    9    11    23    26     9
   12    11    23    24     9
   12    11    23    25     9
   12    11    23    26     9
   13    11    23    24     9
   13    11    23    25     9
   13    11    23    26     9
    6    14    17    18     9
   15    14    17    18     9
   16    14    17    18     9
   14    17    18    19     9
   14    17    18    20     9
   17    18    20    21     9
   17    18    20    22     9
   17    18    20    88     9
   19    18    20    21     9
   19    18    20    22     9
   19    18    20    88     9
   18    20    88    89     9
   18    20    88    90     9
   18    20    88    91     9
   21    20    88    89     9
   21    20    88    90     9
   21    20    88    91     9
   22    20    88    89     9
   22    20    88    90     9
   22    20    88    91     9
   11    23    26    27     9
   11    23    26    28     9
   11    23    26    29     9
   24    23    26    27     9
   24    23    26    28     9
   24    23    26    29     9
   25    23    26    27     9
   25    23    26    28     9
   25    23    26    29     9
   23    26    29    30     9
   23    26    29    31     9
   23    26    29    32     9
   27    26    29    30     9
   27    26    29    31     9
   27    26    29    32     9
   28    26    29    30     9
   28    26    29    31     9
   28    26    29    32     9
   26    29    32    33     9
   26    29    32    34     9
   26    29    32    35     9
   30    29    32    33     9
   30    29    32    34     9
   30    29    32    35     9
   31    29    32    33     9
   31    29    32    34     9
   31    29    32    35     9
   29    32    35    36     9
   29    32    35    37     9
   29    32    35    38     9
   33    32    35    36     9
   33    32    35    37     9
   33    32    35    38     9
   34    32    35    36     9
   34    32    35    37     9
   34    32    35    38     9
   32    35    38    39     9
   32    35    38    40     9
   32    35    38    41     9
   36    35    38    39     9
   36    35    38    40     9
   36    35    38    41     9
   37    35    38    39     9
   37    35    38    40     9
   37    35    38    41     9
   35    38    41    42     9
   35    38    41    43     9
   35    38    41    44     9
   39    38    41    42     9
   39    38    41    43     9
   39    38    41    44     9
   40    38    41    42     9
   40    38    41    43     9
   40    38    41    44     9
   38    41    44    45     9
   38    41    44    46     9
   38    41    44    47     9
   42    41    44    45     9
   42    41    44    46     9
   42    41    44    47     9
   43    41    44    45     9
   43    41    44    46     9
   43    41    44    47     9
   41    44    47    48     9
   41    44    47    49     9
   41    44    47    50     9
   45    44    47    48     9
   45    44    47    49     9
   45    44    47    50     9
   46    44    47    48     9
   46    44    47    49     9
   46    44    47    50     9
   44    47    50    51     9
   44    47    50    52     9
   44    47    50    53     9
   48    47    50    51     9
   48    47    50    52     9
   48    47    50    53     9
   49    47    50    51     9
   49    47    50    52     9
   49    47    50    53     9
   47    50    53    54     9
   47    50    53    55     9
   47    50    53    56     9
   51    50    53    54     9
   51    50    53    55     9
   51    50    53    56     9
   52    50    53    54     9
   52    50    53    55     9
   52    50    53    56     9
   50    53    56    57     9
   50    53    56    58     9
   50    53    56    59     9
   54    53    56    57     9
   54    53    56    58     9
   54    53    56    59     9
   55    53    56    57     9
   55    53    56    58     9
   55    53    56    59     9
   53    56    59    60     9
   53    56    59    61     9
   57    56    59    60     9
   57    56    59    61     9
   58    56    59    60     9
   58    56    59    61     9
   56    59    61    62     9
   56    59    61    63     9
   60    59    61    62     9
   60    59    61    63     9
   59    61    63    64     9
   59    61    63    65     9
   59    61    63    66     9
   62    61    63    64     9
   62    61    63    65     9
   62    61    63    66     9
   61    63    66    67     9
   61    63    66    68     9
   61    63    66    69     9
   64    63    66    67     9
   64    63    66    68     9
   64    63    66    69     9
   65    63    66    67     9
   65    63    66    68     9
   65    63    66    69     9
   63    66    69    70     9
   63    66    69    71     9
   63    66    69    72     9
   67    66    69    70     9
   67    66    69    71     9
   67    66    69    72     9
   68    66    69    70     9
   68    66    69    71     9
   68    66    69    72     9
   66    69    72    73     9
   66    69    72    74     9
   66    69    72    75     9
   70    69    72    73     9
   70    69    72    74     9
   70    69    72    75     9
   71    69    72    73     9
   71    69    72    74     9
   71    69    72    75     9
   69    72    75    76     9
   69    72    75    77     9
   69    72    75    78     9
   73    72    75    76     9
   73    72    75    77     9
   73    72    75    78     9
   74    72    75    76     9
   74    72    75    77     9
   74    72    75    78     9
   72    75    78    79     9
   72    75    78    80     9
   72    75    78    81     9
   76    75    78    79     9
   76    75    78    80     9
   76    75    78    81     9
   77    75    78    79     9
   77    75    78    80     9
   77    75    78    81     9
   75    78    81    82     9
   75    78    81    83     9
   75    78    81    84     9
   79    78    81    82     9
   79    78    81    83     9
   79    78    81    84     9
   80    78    81    82     9
   80    78    81    83     9
   80    78    81    84     9
   78    81    84    85     9
   78    81    84    86     9
   78    81    84    87     9
   82    81    84    85     9
   82    81    84    86     9
   82    81    84    87     9
   83    81    84    85     9
   83    81    84    86     9
   83    81    84    87     9
   20    88    91    92     9
   20    88    91    93     9
   20    88    91    94     9
   89    88    91    92     9
   89    88    91    93     9
   89    88    91    94     9
   90    88    91    92     9
   90    88    91    93     9
   90    88    91    94     9
   88    91    94    95     9
   88    91    94    96     9
   88    91    94    97     9
   92    91    94    95     9
   92    91    94    96     9
   92    91    94    97     9
   93    91    94    95     9
   93    91    94    96     9
   93    91    94    97     9
   91    94    97    98     9
   91    94    97    99     9
   91    94    97   100     9
   95    94    97    98     9
   95    94    97    99     9
   95    94    97   100     9
   96    94    97    98     9
   96    94    97    99     9
   96    94    97   100     9
   94    97   100   101     9
   94    97   100   102     9
   94    97   100   103     9
   98    97   100   101     9
   98    97   100   102     9
   98    97   100   103     9
   99    97   100   101     9
   99    97   100   102     9
   99    97   100   103     9
   97   100   103   104     9
   97   100   103   105     9
   97   100   103   106     9
  101   100   103   104     9
  101   100   103   105     9
  101   100   103   106     9
  102   100   103   104     9
  102   100   103   105     9
  102   100   103   106     9
  100   103   106   107     9
  100   103   106   108     9
  100   103   106   109     9
  104   103   106   107     9
  104   103   106   108     9
  104   103   106   109     9
  105   103   106   107     9
  105   103   106   108     9
  105   103   106   109     9
  103   106   109   110     9
  103   106   109   111     9
  103   106   109   112     9
  107   106   109   110     9
  107   106   109   111     9
  107   106   109   112     9
  108   106   109   110     9
  108   106   109   111     9
  108   106   109   112     9
  106   109   112   113     9
  106   109   112   114     9
  106   109   112   115     9
  110   109   112   113     9
  110   109   112   114     9
  110   109   112   115     9
  111   109   112   113     9
  111   109   112   114     9
  111   109   112   115     9
  109   112   115   116     9
  109   112   115   117     9
  109   112   115   118     9
  113   112   115   116     9
  113   112   115   117     9
  113   112   115   118     9
  114   112   115   116     9
  114   112   115   117     9
  114   112   115   118     9
  112   115   118   119     9
  112   115   118   120     9
  112   115   118   121     9
  116   115   118   119     9
  116   115   118   120     9
  116   115   118   121     9
  117   115   118   119     9
  117   115   118   120     9
  117   115   118   121     9
  115   118   121   122     9
  115   118   121   123     9
  115   118   121   124     9
  119   118   121   122     9
  119   118   121   123     9
  119   118   121   124     9
  120   118   121   122     9
  120   118   121   123     9
  120   118   121   124     9
  118   121   124   125     9
  118   121   124   126     9
  122   121   124   125     9
  122   121   124   126     9
  123   121   124   125     9
  123   121   124   126     9
  121   124   126   127     9
  121   124   126   128     9
  125   124   126   127     9
  125   124   126   128     9
  124   126   128   129     9
  124   126   128   130     9
  124   126   128   131     9
  127   126   128   129     9
  127   126   128   130     9
  127   126   128   131     9
  126   128   131   132     9
  126   128   131   133     9
  126   128   131   134     9
  129   128   131   132     9
  129   128   131   133     9
  129   128   131   134     9
  130   128   131   132     9
  130   128   131   133     9
  130   128   131   134     9
  128   131   134   135     9
  128   131   134   136     9
  128   131   134   137     9
  132   131   134   135     9
  132   131   134   136     9
  132   131   134   137     9
  133   131   134   135     9
  133   131   134   136     9
  133   131   134   137     9
  131   134   137   138     9
  131   134   137   139     9
  131   134   137   140     9
  135   134   137   138     9
  135   134   137   139     9
  135   134   137   140     9
  136   134   137   138     9
  136   134   137   139     9
  136   134   137   140     9
  134   137   140   141     9
  134   137   140   142     9
  134   137   140   143     9
  138   137   140   141     9
  138   137   140   142     9
  138   137   140   143     9
  139   137   140   141     9
  139   137   140   142     9
  139   137   140   143     9
  137   140   143   144     9
  137   140   143   145     9
  137   140   143   146     9
  141   140   143   144     9
  141   140   143   145     9
  141   140   143   146     9
  142   140   143   144     9
  142   140   143   145     9
  142   140   143   146     9
  140   143   146   147     9
  140   143   146   148     9
  140   143   146   149     9
  144   143   146   147     9
  144   143   146   148     9
  144   143   146   149     9
  145   143   146   147     9
  145   143   146   148     9
  145   143   146   149     9
  143   146   149   150     9
  143   146   149   151     9
  143   146   149   152     9
  147   146   149   150     9
  147   146   149   151     9
  147   146   149   152     9
  148   146   149   150     9
  148   146   149   151     9
  148   146   149   152     9

[ dihedrals ]
; ai	aj	ak	al	funct	q0	cq
    9     8    11    10     2
   18    17    20    19     2

#ifdef POSRES
[ position_restraints ]
    4     1     0.0             0.0            POSRES_FC_LIPID
#endif

#ifdef DIHRES
[ dihedral_restraints ]
    1    14     6     8     1   -120.0      2.5       DIHRES_FC
   56    59    61    63     1      0.0      0.0       DIHRES_FC
  121   124   126   128     1      0.0      0.0       DIHRES_FC
#endif
