;;
;; Generated by CHARMM-GUI FF-Converter
;;
;; Correspondance:
;; jul316@lehigh.edu or wonpil@lehigh.edu
;;
;; GROMACS topology file for DODAP
;;


[ moleculetype ]
; name	nrexcl
DODAP	     3

[ atoms ]
; nr	type	resnr	residu	atom	cgnr	charge	mass
     1      NG301     49    DODAP     N1      1    -0.630000    14.0070   ; qtot -0.630
     2     CG3AM0     49    DODAP    CN1      2    -0.060000    12.0110   ; qtot -0.690
     3     HGAAM0     49    DODAP   HN11      3     0.090000     1.0080   ; qtot -0.600
     4     HGAAM0     49    DODAP   HN12      4     0.090000     1.0080   ; qtot -0.510
     5     HGAAM0     49    DODAP   HN13      5     0.090000     1.0080   ; qtot -0.420
     6     CG3AM0     49    DODAP    CN2      6    -0.060000    12.0110   ; qtot -0.480
     7     HGAAM0     49    DODAP   HN21      7     0.090000     1.0080   ; qtot -0.390
     8     HGAAM0     49    DODAP   HN22      8     0.090000     1.0080   ; qtot -0.300
     9     HGAAM0     49    DODAP   HN23      9     0.090000     1.0080   ; qtot -0.210
    10      CG321     49    DODAP     C1     10     0.030000    12.0110   ; qtot -0.180
    11       HGA2     49    DODAP    H11     11     0.090000     1.0080   ; qtot -0.090
    12       HGA2     49    DODAP    H12     12     0.090000     1.0080   ; qtot -0.000
    13       CTL1     49    DODAP     C2     13     0.170000    12.0110   ; qtot  0.170
    14       HAL1     49    DODAP     HS     14     0.090000     1.0080   ; qtot  0.260
    15        OSL     49    DODAP    O21     15    -0.490000    15.9994   ; qtot -0.230
    16         CL     49    DODAP    C21     16     0.900000    12.0110   ; qtot  0.670
    17        OBL     49    DODAP    O22     17    -0.630000    15.9994   ; qtot  0.040
    18       CTL2     49    DODAP    C22     18    -0.220000    12.0110   ; qtot -0.180
    19       HAL2     49    DODAP    H2R     19     0.090000     1.0080   ; qtot -0.090
    20       HAL2     49    DODAP    H2S     20     0.090000     1.0080   ; qtot -0.000
    21       CTL2     49    DODAP     C3     21     0.080000    12.0110   ; qtot  0.080
    22       HAL2     49    DODAP     HX     22     0.090000     1.0080   ; qtot  0.170
    23       HAL2     49    DODAP     HY     23     0.090000     1.0080   ; qtot  0.260
    24        OSL     49    DODAP    O31     24    -0.490000    15.9994   ; qtot -0.230
    25         CL     49    DODAP    C31     25     0.900000    12.0110   ; qtot  0.670
    26        OBL     49    DODAP    O32     26    -0.630000    15.9994   ; qtot  0.040
    27       CTL2     49    DODAP    C32     27    -0.220000    12.0110   ; qtot -0.180
    28       HAL2     49    DODAP    H2X     28     0.090000     1.0080   ; qtot -0.090
    29       HAL2     49    DODAP    H2Y     29     0.090000     1.0080   ; qtot -0.000
    30       CTL2     49    DODAP    C23     30    -0.180000    12.0110   ; qtot -0.180
    31       HAL2     49    DODAP    H3R     31     0.090000     1.0080   ; qtot -0.090
    32       HAL2     49    DODAP    H3S     32     0.090000     1.0080   ; qtot -0.000
    33       CTL2     49    DODAP    C24     33    -0.180000    12.0110   ; qtot -0.180
    34       HAL2     49    DODAP    H4R     34     0.090000     1.0080   ; qtot -0.090
    35       HAL2     49    DODAP    H4S     35     0.090000     1.0080   ; qtot -0.000
    36       CTL2     49    DODAP    C25     36    -0.180000    12.0110   ; qtot -0.180
    37       HAL2     49    DODAP    H5R     37     0.090000     1.0080   ; qtot -0.090
    38       HAL2     49    DODAP    H5S     38     0.090000     1.0080   ; qtot -0.000
    39       CTL2     49    DODAP    C26     39    -0.180000    12.0110   ; qtot -0.180
    40       HAL2     49    DODAP    H6R     40     0.090000     1.0080   ; qtot -0.090
    41       HAL2     49    DODAP    H6S     41     0.090000     1.0080   ; qtot -0.000
    42       CTL2     49    DODAP    C27     42    -0.180000    12.0110   ; qtot -0.180
    43       HAL2     49    DODAP    H7R     43     0.090000     1.0080   ; qtot -0.090
    44       HAL2     49    DODAP    H7S     44     0.090000     1.0080   ; qtot -0.000
    45       CTL2     49    DODAP    C28     45    -0.180000    12.0110   ; qtot -0.180
    46       HAL2     49    DODAP    H8R     46     0.090000     1.0080   ; qtot -0.090
    47       HAL2     49    DODAP    H8S     47     0.090000     1.0080   ; qtot -0.000
    48       CEL1     49    DODAP    C29     48    -0.150000    12.0110   ; qtot -0.150
    49       HEL1     49    DODAP    H9R     49     0.150000     1.0080   ; qtot -0.000
    50       CEL1     49    DODAP   C210     50    -0.150000    12.0110   ; qtot -0.150
    51       HEL1     49    DODAP   H10R     51     0.150000     1.0080   ; qtot -0.000
    52       CTL2     49    DODAP   C211     52    -0.180000    12.0110   ; qtot -0.180
    53       HAL2     49    DODAP   H11R     53     0.090000     1.0080   ; qtot -0.090
    54       HAL2     49    DODAP   H11S     54     0.090000     1.0080   ; qtot -0.000
    55       CTL2     49    DODAP   C212     55    -0.180000    12.0110   ; qtot -0.180
    56       HAL2     49    DODAP   H12R     56     0.090000     1.0080   ; qtot -0.090
    57       HAL2     49    DODAP   H12S     57     0.090000     1.0080   ; qtot -0.000
    58       CTL2     49    DODAP   C213     58    -0.180000    12.0110   ; qtot -0.180
    59       HAL2     49    DODAP   H13R     59     0.090000     1.0080   ; qtot -0.090
    60       HAL2     49    DODAP   H13S     60     0.090000     1.0080   ; qtot -0.000
    61       CTL2     49    DODAP   C214     61    -0.180000    12.0110   ; qtot -0.180
    62       HAL2     49    DODAP   H14R     62     0.090000     1.0080   ; qtot -0.090
    63       HAL2     49    DODAP   H14S     63     0.090000     1.0080   ; qtot -0.000
    64       CTL2     49    DODAP   C215     64    -0.180000    12.0110   ; qtot -0.180
    65       HAL2     49    DODAP   H15R     65     0.090000     1.0080   ; qtot -0.090
    66       HAL2     49    DODAP   H15S     66     0.090000     1.0080   ; qtot -0.000
    67       CTL2     49    DODAP   C216     67    -0.180000    12.0110   ; qtot -0.180
    68       HAL2     49    DODAP   H16R     68     0.090000     1.0080   ; qtot -0.090
    69       HAL2     49    DODAP   H16S     69     0.090000     1.0080   ; qtot -0.000
    70       CTL2     49    DODAP   C217     70    -0.180000    12.0110   ; qtot -0.180
    71       HAL2     49    DODAP   H17R     71     0.090000     1.0080   ; qtot -0.090
    72       HAL2     49    DODAP   H17S     72     0.090000     1.0080   ; qtot -0.000
    73       CTL3     49    DODAP   C218     73    -0.270000    12.0110   ; qtot -0.270
    74       HAL3     49    DODAP   H18R     74     0.090000     1.0080   ; qtot -0.180
    75       HAL3     49    DODAP   H18S     75     0.090000     1.0080   ; qtot -0.090
    76       HAL3     49    DODAP   H18T     76     0.090000     1.0080   ; qtot -0.000
    77       CTL2     49    DODAP    C33     77    -0.180000    12.0110   ; qtot -0.180
    78       HAL2     49    DODAP    H3X     78     0.090000     1.0080   ; qtot -0.090
    79       HAL2     49    DODAP    H3Y     79     0.090000     1.0080   ; qtot -0.000
    80       CTL2     49    DODAP    C34     80    -0.180000    12.0110   ; qtot -0.180
    81       HAL2     49    DODAP    H4X     81     0.090000     1.0080   ; qtot -0.090
    82       HAL2     49    DODAP    H4Y     82     0.090000     1.0080   ; qtot -0.000
    83       CTL2     49    DODAP    C35     83    -0.180000    12.0110   ; qtot -0.180
    84       HAL2     49    DODAP    H5X     84     0.090000     1.0080   ; qtot -0.090
    85       HAL2     49    DODAP    H5Y     85     0.090000     1.0080   ; qtot -0.000
    86       CTL2     49    DODAP    C36     86    -0.180000    12.0110   ; qtot -0.180
    87       HAL2     49    DODAP    H6X     87     0.090000     1.0080   ; qtot -0.090
    88       HAL2     49    DODAP    H6Y     88     0.090000     1.0080   ; qtot -0.000
    89       CTL2     49    DODAP    C37     89    -0.180000    12.0110   ; qtot -0.180
    90       HAL2     49    DODAP    H7X     90     0.090000     1.0080   ; qtot -0.090
    91       HAL2     49    DODAP    H7Y     91     0.090000     1.0080   ; qtot -0.000
    92       CTL2     49    DODAP    C38     92    -0.180000    12.0110   ; qtot -0.180
    93       HAL2     49    DODAP    H8X     93     0.090000     1.0080   ; qtot -0.090
    94       HAL2     49    DODAP    H8Y     94     0.090000     1.0080   ; qtot -0.000
    95       CEL1     49    DODAP    C39     95    -0.150000    12.0110   ; qtot -0.150
    96       HEL1     49    DODAP    H9X     96     0.150000     1.0080   ; qtot -0.000
    97       CEL1     49    DODAP   C310     97    -0.150000    12.0110   ; qtot -0.150
    98       HEL1     49    DODAP   H10X     98     0.150000     1.0080   ; qtot -0.000
    99       CTL2     49    DODAP   C311     99    -0.180000    12.0110   ; qtot -0.180
   100       HAL2     49    DODAP   H11X    100     0.090000     1.0080   ; qtot -0.090
   101       HAL2     49    DODAP   H11Y    101     0.090000     1.0080   ; qtot -0.000
   102       CTL2     49    DODAP   C312    102    -0.180000    12.0110   ; qtot -0.180
   103       HAL2     49    DODAP   H12X    103     0.090000     1.0080   ; qtot -0.090
   104       HAL2     49    DODAP   H12Y    104     0.090000     1.0080   ; qtot -0.000
   105       CTL2     49    DODAP   C313    105    -0.180000    12.0110   ; qtot -0.180
   106       HAL2     49    DODAP   H13X    106     0.090000     1.0080   ; qtot -0.090
   107       HAL2     49    DODAP   H13Y    107     0.090000     1.0080   ; qtot -0.000
   108       CTL2     49    DODAP   C314    108    -0.180000    12.0110   ; qtot -0.180
   109       HAL2     49    DODAP   H14X    109     0.090000     1.0080   ; qtot -0.090
   110       HAL2     49    DODAP   H14Y    110     0.090000     1.0080   ; qtot -0.000
   111       CTL2     49    DODAP   C315    111    -0.180000    12.0110   ; qtot -0.180
   112       HAL2     49    DODAP   H15X    112     0.090000     1.0080   ; qtot -0.090
   113       HAL2     49    DODAP   H15Y    113     0.090000     1.0080   ; qtot -0.000
   114       CTL2     49    DODAP   C316    114    -0.180000    12.0110   ; qtot -0.180
   115       HAL2     49    DODAP   H16X    115     0.090000     1.0080   ; qtot -0.090
   116       HAL2     49    DODAP   H16Y    116     0.090000     1.0080   ; qtot -0.000
   117       CTL2     49    DODAP   C317    117    -0.180000    12.0110   ; qtot -0.180
   118       HAL2     49    DODAP   H17X    118     0.090000     1.0080   ; qtot -0.090
   119       HAL2     49    DODAP   H17Y    119     0.090000     1.0080   ; qtot -0.000
   120       CTL3     49    DODAP   C318    120    -0.270000    12.0110   ; qtot -0.270
   121       HAL3     49    DODAP   H18X    121     0.090000     1.0080   ; qtot -0.180
   122       HAL3     49    DODAP   H18Y    122     0.090000     1.0080   ; qtot -0.090
   123       HAL3     49    DODAP   H18Z    123     0.090000     1.0080   ; qtot -0.000

[ bonds ]
; ai	aj	funct	b0	Kb
    1     2     1
    1     6     1
    1    10     1
    2     3     1
    2     4     1
    2     5     1
    6     7     1
    6     8     1
    6     9     1
   10    11     1
   10    12     1
   10    13     1
   13    14     1
   13    15     1
   13    21     1
   15    16     1
   16    17     1
   16    18     1
   18    19     1
   18    20     1
   18    30     1
   21    22     1
   21    23     1
   21    24     1
   24    25     1
   25    26     1
   25    27     1
   27    28     1
   27    29     1
   27    77     1
   30    31     1
   30    32     1
   30    33     1
   33    34     1
   33    35     1
   33    36     1
   36    37     1
   36    38     1
   36    39     1
   39    40     1
   39    41     1
   39    42     1
   42    43     1
   42    44     1
   42    45     1
   45    46     1
   45    47     1
   45    48     1
   48    49     1
   48    50     1
   50    51     1
   50    52     1
   52    53     1
   52    54     1
   52    55     1
   55    56     1
   55    57     1
   55    58     1
   58    59     1
   58    60     1
   58    61     1
   61    62     1
   61    63     1
   61    64     1
   64    65     1
   64    66     1
   64    67     1
   67    68     1
   67    69     1
   67    70     1
   70    71     1
   70    72     1
   70    73     1
   73    74     1
   73    75     1
   73    76     1
   77    78     1
   77    79     1
   77    80     1
   80    81     1
   80    82     1
   80    83     1
   83    84     1
   83    85     1
   83    86     1
   86    87     1
   86    88     1
   86    89     1
   89    90     1
   89    91     1
   89    92     1
   92    93     1
   92    94     1
   92    95     1
   95    96     1
   95    97     1
   97    98     1
   97    99     1
   99   100     1
   99   101     1
   99   102     1
  102   103     1
  102   104     1
  102   105     1
  105   106     1
  105   107     1
  105   108     1
  108   109     1
  108   110     1
  108   111     1
  111   112     1
  111   113     1
  111   114     1
  114   115     1
  114   116     1
  114   117     1
  117   118     1
  117   119     1
  117   120     1
  120   121     1
  120   122     1
  120   123     1

[ pairs ]
; ai	aj	funct	c6	c12 or
; ai	aj	funct	fudgeQQ	q1	q2	c6	c12
    1    14     1
    1    15     1
    1    21     1
    2     7     1
    2     8     1
    2     9     1
    2    11     1
    2    12     1
    2    13     1
    3     6     1
    3    10     1
    4     6     1
    4    10     1
    5     6     1
    5    10     1
    6    11     1
    6    12     1
    6    13     1
    7    10     1
    8    10     1
    9    10     1
   10    16     1
   10    22     1
   10    23     1
   10    24     1
   11    14     1
   11    15     1
   11    21     1
   12    14     1
   12    15     1
   12    21     1
   13    17     1
   13    18     1
   13    25     1
   14    16     1
   14    22     1
   14    23     1
   14    24     1
   15    19     1
   15    20     1
   15    22     1
   15    23     1
   15    24     1
   15    30     1
   16    21     1
   16    31     1
   16    32     1
   16    33     1
   17    19     1
   17    20     1
   17    30     1
   18    34     1
   18    35     1
   18    36     1
   19    31     1
   19    32     1
   19    33     1
   20    31     1
   20    32     1
   20    33     1
   21    26     1
   21    27     1
   22    25     1
   23    25     1
   24    28     1
   24    29     1
   24    77     1
   25    78     1
   25    79     1
   25    80     1
   26    28     1
   26    29     1
   26    77     1
   27    81     1
   27    82     1
   27    83     1
   28    78     1
   28    79     1
   28    80     1
   29    78     1
   29    79     1
   29    80     1
   30    37     1
   30    38     1
   30    39     1
   31    34     1
   31    35     1
   31    36     1
   32    34     1
   32    35     1
   32    36     1
   33    40     1
   33    41     1
   33    42     1
   34    37     1
   34    38     1
   34    39     1
   35    37     1
   35    38     1
   35    39     1
   36    43     1
   36    44     1
   36    45     1
   37    40     1
   37    41     1
   37    42     1
   38    40     1
   38    41     1
   38    42     1
   39    46     1
   39    47     1
   39    48     1
   40    43     1
   40    44     1
   40    45     1
   41    43     1
   41    44     1
   41    45     1
   42    49     1
   42    50     1
   43    46     1
   43    47     1
   43    48     1
   44    46     1
   44    47     1
   44    48     1
   45    51     1
   45    52     1
   46    49     1
   46    50     1
   47    49     1
   47    50     1
   48    53     1
   48    54     1
   48    55     1
   49    51     1
   49    52     1
   50    56     1
   50    57     1
   50    58     1
   51    53     1
   51    54     1
   51    55     1
   52    59     1
   52    60     1
   52    61     1
   53    56     1
   53    57     1
   53    58     1
   54    56     1
   54    57     1
   54    58     1
   55    62     1
   55    63     1
   55    64     1
   56    59     1
   56    60     1
   56    61     1
   57    59     1
   57    60     1
   57    61     1
   58    65     1
   58    66     1
   58    67     1
   59    62     1
   59    63     1
   59    64     1
   60    62     1
   60    63     1
   60    64     1
   61    68     1
   61    69     1
   61    70     1
   62    65     1
   62    66     1
   62    67     1
   63    65     1
   63    66     1
   63    67     1
   64    71     1
   64    72     1
   64    73     1
   65    68     1
   65    69     1
   65    70     1
   66    68     1
   66    69     1
   66    70     1
   67    74     1
   67    75     1
   67    76     1
   68    71     1
   68    72     1
   68    73     1
   69    71     1
   69    72     1
   69    73     1
   71    74     1
   71    75     1
   71    76     1
   72    74     1
   72    75     1
   72    76     1
   77    84     1
   77    85     1
   77    86     1
   78    81     1
   78    82     1
   78    83     1
   79    81     1
   79    82     1
   79    83     1
   80    87     1
   80    88     1
   80    89     1
   81    84     1
   81    85     1
   81    86     1
   82    84     1
   82    85     1
   82    86     1
   83    90     1
   83    91     1
   83    92     1
   84    87     1
   84    88     1
   84    89     1
   85    87     1
   85    88     1
   85    89     1
   86    93     1
   86    94     1
   86    95     1
   87    90     1
   87    91     1
   87    92     1
   88    90     1
   88    91     1
   88    92     1
   89    96     1
   89    97     1
   90    93     1
   90    94     1
   90    95     1
   91    93     1
   91    94     1
   91    95     1
   92    98     1
   92    99     1
   93    96     1
   93    97     1
   94    96     1
   94    97     1
   95   100     1
   95   101     1
   95   102     1
   96    98     1
   96    99     1
   97   103     1
   97   104     1
   97   105     1
   98   100     1
   98   101     1
   98   102     1
   99   106     1
   99   107     1
   99   108     1
  100   103     1
  100   104     1
  100   105     1
  101   103     1
  101   104     1
  101   105     1
  102   109     1
  102   110     1
  102   111     1
  103   106     1
  103   107     1
  103   108     1
  104   106     1
  104   107     1
  104   108     1
  105   112     1
  105   113     1
  105   114     1
  106   109     1
  106   110     1
  106   111     1
  107   109     1
  107   110     1
  107   111     1
  108   115     1
  108   116     1
  108   117     1
  109   112     1
  109   113     1
  109   114     1
  110   112     1
  110   113     1
  110   114     1
  111   118     1
  111   119     1
  111   120     1
  112   115     1
  112   116     1
  112   117     1
  113   115     1
  113   116     1
  113   117     1
  114   121     1
  114   122     1
  114   123     1
  115   118     1
  115   119     1
  115   120     1
  116   118     1
  116   119     1
  116   120     1
  118   121     1
  118   122     1
  118   123     1
  119   121     1
  119   122     1
  119   123     1

[ angles ] 
; ai	aj	ak	funct	th0	cth	S0	Kub
    2     1     6     5
    2     1    10     5
    6     1    10     5
    1     2     3     5
    1     2     4     5
    1     2     5     5
    3     2     4     5
    3     2     5     5
    4     2     5     5
    1     6     7     5
    1     6     8     5
    1     6     9     5
    7     6     8     5
    7     6     9     5
    8     6     9     5
    1    10    11     5
    1    10    12     5
    1    10    13     5
   11    10    12     5
   11    10    13     5
   12    10    13     5
   10    13    14     5
   10    13    15     5
   10    13    21     5
   14    13    15     5
   14    13    21     5
   15    13    21     5
   13    15    16     5
   15    16    17     5
   15    16    18     5
   17    16    18     5
   16    18    19     5
   16    18    20     5
   16    18    30     5
   19    18    20     5
   19    18    30     5
   20    18    30     5
   13    21    22     5
   13    21    23     5
   13    21    24     5
   22    21    23     5
   22    21    24     5
   23    21    24     5
   21    24    25     5
   24    25    26     5
   24    25    27     5
   26    25    27     5
   25    27    28     5
   25    27    29     5
   25    27    77     5
   28    27    29     5
   28    27    77     5
   29    27    77     5
   18    30    31     5
   18    30    32     5
   18    30    33     5
   31    30    32     5
   31    30    33     5
   32    30    33     5
   30    33    34     5
   30    33    35     5
   30    33    36     5
   34    33    35     5
   34    33    36     5
   35    33    36     5
   33    36    37     5
   33    36    38     5
   33    36    39     5
   37    36    38     5
   37    36    39     5
   38    36    39     5
   36    39    40     5
   36    39    41     5
   36    39    42     5
   40    39    41     5
   40    39    42     5
   41    39    42     5
   39    42    43     5
   39    42    44     5
   39    42    45     5
   43    42    44     5
   43    42    45     5
   44    42    45     5
   42    45    46     5
   42    45    47     5
   42    45    48     5
   46    45    47     5
   46    45    48     5
   47    45    48     5
   45    48    49     5
   45    48    50     5
   49    48    50     5
   48    50    51     5
   48    50    52     5
   51    50    52     5
   50    52    53     5
   50    52    54     5
   50    52    55     5
   53    52    54     5
   53    52    55     5
   54    52    55     5
   52    55    56     5
   52    55    57     5
   52    55    58     5
   56    55    57     5
   56    55    58     5
   57    55    58     5
   55    58    59     5
   55    58    60     5
   55    58    61     5
   59    58    60     5
   59    58    61     5
   60    58    61     5
   58    61    62     5
   58    61    63     5
   58    61    64     5
   62    61    63     5
   62    61    64     5
   63    61    64     5
   61    64    65     5
   61    64    66     5
   61    64    67     5
   65    64    66     5
   65    64    67     5
   66    64    67     5
   64    67    68     5
   64    67    69     5
   64    67    70     5
   68    67    69     5
   68    67    70     5
   69    67    70     5
   67    70    71     5
   67    70    72     5
   67    70    73     5
   71    70    72     5
   71    70    73     5
   72    70    73     5
   70    73    74     5
   70    73    75     5
   70    73    76     5
   74    73    75     5
   74    73    76     5
   75    73    76     5
   27    77    78     5
   27    77    79     5
   27    77    80     5
   78    77    79     5
   78    77    80     5
   79    77    80     5
   77    80    81     5
   77    80    82     5
   77    80    83     5
   81    80    82     5
   81    80    83     5
   82    80    83     5
   80    83    84     5
   80    83    85     5
   80    83    86     5
   84    83    85     5
   84    83    86     5
   85    83    86     5
   83    86    87     5
   83    86    88     5
   83    86    89     5
   87    86    88     5
   87    86    89     5
   88    86    89     5
   86    89    90     5
   86    89    91     5
   86    89    92     5
   90    89    91     5
   90    89    92     5
   91    89    92     5
   89    92    93     5
   89    92    94     5
   89    92    95     5
   93    92    94     5
   93    92    95     5
   94    92    95     5
   92    95    96     5
   92    95    97     5
   96    95    97     5
   95    97    98     5
   95    97    99     5
   98    97    99     5
   97    99   100     5
   97    99   101     5
   97    99   102     5
  100    99   101     5
  100    99   102     5
  101    99   102     5
   99   102   103     5
   99   102   104     5
   99   102   105     5
  103   102   104     5
  103   102   105     5
  104   102   105     5
  102   105   106     5
  102   105   107     5
  102   105   108     5
  106   105   107     5
  106   105   108     5
  107   105   108     5
  105   108   109     5
  105   108   110     5
  105   108   111     5
  109   108   110     5
  109   108   111     5
  110   108   111     5
  108   111   112     5
  108   111   113     5
  108   111   114     5
  112   111   113     5
  112   111   114     5
  113   111   114     5
  111   114   115     5
  111   114   116     5
  111   114   117     5
  115   114   116     5
  115   114   117     5
  116   114   117     5
  114   117   118     5
  114   117   119     5
  114   117   120     5
  118   117   119     5
  118   117   120     5
  119   117   120     5
  117   120   121     5
  117   120   122     5
  117   120   123     5
  121   120   122     5
  121   120   123     5
  122   120   123     5

[ dihedrals ]
; ai	aj	ak	al	funct	phi0	cp	mult
    2     1     6     7     9
    2     1     6     8     9
    2     1     6     9     9
    2     1    10    11     9
    2     1    10    12     9
    2     1    10    13     9
    6     1    10    11     9
    6     1    10    12     9
    6     1    10    13     9
    3     2     1     6     9
    3     2     1    10     9
    4     2     1     6     9
    4     2     1    10     9
    5     2     1     6     9
    5     2     1    10     9
    7     6     1    10     9
    8     6     1    10     9
    9     6     1    10     9
    1    10    13    14     9
    1    10    13    15     9
    1    10    13    21     9
   11    10    13    14     9
   11    10    13    15     9
   11    10    13    21     9
   12    10    13    14     9
   12    10    13    15     9
   12    10    13    21     9
   10    13    15    16     9
   14    13    15    16     9
   10    13    21    22     9
   10    13    21    23     9
   10    13    21    24     9
   14    13    21    22     9
   14    13    21    23     9
   14    13    21    24     9
   15    13    21    22     9
   15    13    21    23     9
   15    13    21    24     9
   16    15    13    21     9
   13    15    16    17     9
   13    15    16    18     9
   15    16    18    19     9
   15    16    18    20     9
   15    16    18    30     9
   17    16    18    19     9
   17    16    18    20     9
   17    16    18    30     9
   16    18    30    31     9
   16    18    30    32     9
   16    18    30    33     9
   19    18    30    31     9
   19    18    30    32     9
   19    18    30    33     9
   20    18    30    31     9
   20    18    30    32     9
   20    18    30    33     9
   13    21    24    25     9
   22    21    24    25     9
   23    21    24    25     9
   21    24    25    26     9
   21    24    25    27     9
   24    25    27    28     9
   24    25    27    29     9
   24    25    27    77     9
   26    25    27    28     9
   26    25    27    29     9
   26    25    27    77     9
   25    27    77    78     9
   25    27    77    79     9
   25    27    77    80     9
   28    27    77    78     9
   28    27    77    79     9
   28    27    77    80     9
   29    27    77    78     9
   29    27    77    79     9
   29    27    77    80     9
   18    30    33    34     9
   18    30    33    35     9
   18    30    33    36     9
   31    30    33    34     9
   31    30    33    35     9
   31    30    33    36     9
   32    30    33    34     9
   32    30    33    35     9
   32    30    33    36     9
   30    33    36    37     9
   30    33    36    38     9
   30    33    36    39     9
   34    33    36    37     9
   34    33    36    38     9
   34    33    36    39     9
   35    33    36    37     9
   35    33    36    38     9
   35    33    36    39     9
   33    36    39    40     9
   33    36    39    41     9
   33    36    39    42     9
   37    36    39    40     9
   37    36    39    41     9
   37    36    39    42     9
   38    36    39    40     9
   38    36    39    41     9
   38    36    39    42     9
   36    39    42    43     9
   36    39    42    44     9
   36    39    42    45     9
   40    39    42    43     9
   40    39    42    44     9
   40    39    42    45     9
   41    39    42    43     9
   41    39    42    44     9
   41    39    42    45     9
   39    42    45    46     9
   39    42    45    47     9
   39    42    45    48     9
   43    42    45    46     9
   43    42    45    47     9
   43    42    45    48     9
   44    42    45    46     9
   44    42    45    47     9
   44    42    45    48     9
   42    45    48    49     9
   42    45    48    50     9
   46    45    48    49     9
   46    45    48    50     9
   47    45    48    49     9
   47    45    48    50     9
   45    48    50    51     9
   45    48    50    52     9
   49    48    50    51     9
   49    48    50    52     9
   48    50    52    53     9
   48    50    52    54     9
   48    50    52    55     9
   51    50    52    53     9
   51    50    52    54     9
   51    50    52    55     9
   50    52    55    56     9
   50    52    55    57     9
   50    52    55    58     9
   53    52    55    56     9
   53    52    55    57     9
   53    52    55    58     9
   54    52    55    56     9
   54    52    55    57     9
   54    52    55    58     9
   52    55    58    59     9
   52    55    58    60     9
   52    55    58    61     9
   56    55    58    59     9
   56    55    58    60     9
   56    55    58    61     9
   57    55    58    59     9
   57    55    58    60     9
   57    55    58    61     9
   55    58    61    62     9
   55    58    61    63     9
   55    58    61    64     9
   59    58    61    62     9
   59    58    61    63     9
   59    58    61    64     9
   60    58    61    62     9
   60    58    61    63     9
   60    58    61    64     9
   58    61    64    65     9
   58    61    64    66     9
   58    61    64    67     9
   62    61    64    65     9
   62    61    64    66     9
   62    61    64    67     9
   63    61    64    65     9
   63    61    64    66     9
   63    61    64    67     9
   61    64    67    68     9
   61    64    67    69     9
   61    64    67    70     9
   65    64    67    68     9
   65    64    67    69     9
   65    64    67    70     9
   66    64    67    68     9
   66    64    67    69     9
   66    64    67    70     9
   64    67    70    71     9
   64    67    70    72     9
   64    67    70    73     9
   68    67    70    71     9
   68    67    70    72     9
   68    67    70    73     9
   69    67    70    71     9
   69    67    70    72     9
   69    67    70    73     9
   67    70    73    74     9
   67    70    73    75     9
   67    70    73    76     9
   71    70    73    74     9
   71    70    73    75     9
   71    70    73    76     9
   72    70    73    74     9
   72    70    73    75     9
   72    70    73    76     9
   27    77    80    81     9
   27    77    80    82     9
   27    77    80    83     9
   78    77    80    81     9
   78    77    80    82     9
   78    77    80    83     9
   79    77    80    81     9
   79    77    80    82     9
   79    77    80    83     9
   77    80    83    84     9
   77    80    83    85     9
   77    80    83    86     9
   81    80    83    84     9
   81    80    83    85     9
   81    80    83    86     9
   82    80    83    84     9
   82    80    83    85     9
   82    80    83    86     9
   80    83    86    87     9
   80    83    86    88     9
   80    83    86    89     9
   84    83    86    87     9
   84    83    86    88     9
   84    83    86    89     9
   85    83    86    87     9
   85    83    86    88     9
   85    83    86    89     9
   83    86    89    90     9
   83    86    89    91     9
   83    86    89    92     9
   87    86    89    90     9
   87    86    89    91     9
   87    86    89    92     9
   88    86    89    90     9
   88    86    89    91     9
   88    86    89    92     9
   86    89    92    93     9
   86    89    92    94     9
   86    89    92    95     9
   90    89    92    93     9
   90    89    92    94     9
   90    89    92    95     9
   91    89    92    93     9
   91    89    92    94     9
   91    89    92    95     9
   89    92    95    96     9
   89    92    95    97     9
   93    92    95    96     9
   93    92    95    97     9
   94    92    95    96     9
   94    92    95    97     9
   92    95    97    98     9
   92    95    97    99     9
   96    95    97    98     9
   96    95    97    99     9
   95    97    99   100     9
   95    97    99   101     9
   95    97    99   102     9
   98    97    99   100     9
   98    97    99   101     9
   98    97    99   102     9
   97    99   102   103     9
   97    99   102   104     9
   97    99   102   105     9
  100    99   102   103     9
  100    99   102   104     9
  100    99   102   105     9
  101    99   102   103     9
  101    99   102   104     9
  101    99   102   105     9
   99   102   105   106     9
   99   102   105   107     9
   99   102   105   108     9
  103   102   105   106     9
  103   102   105   107     9
  103   102   105   108     9
  104   102   105   106     9
  104   102   105   107     9
  104   102   105   108     9
  102   105   108   109     9
  102   105   108   110     9
  102   105   108   111     9
  106   105   108   109     9
  106   105   108   110     9
  106   105   108   111     9
  107   105   108   109     9
  107   105   108   110     9
  107   105   108   111     9
  105   108   111   112     9
  105   108   111   113     9
  105   108   111   114     9
  109   108   111   112     9
  109   108   111   113     9
  109   108   111   114     9
  110   108   111   112     9
  110   108   111   113     9
  110   108   111   114     9
  108   111   114   115     9
  108   111   114   116     9
  108   111   114   117     9
  112   111   114   115     9
  112   111   114   116     9
  112   111   114   117     9
  113   111   114   115     9
  113   111   114   116     9
  113   111   114   117     9
  111   114   117   118     9
  111   114   117   119     9
  111   114   117   120     9
  115   114   117   118     9
  115   114   117   119     9
  115   114   117   120     9
  116   114   117   118     9
  116   114   117   119     9
  116   114   117   120     9
  114   117   120   121     9
  114   117   120   122     9
  114   117   120   123     9
  118   117   120   121     9
  118   117   120   122     9
  118   117   120   123     9
  119   117   120   121     9
  119   117   120   122     9
  119   117   120   123     9

[ dihedrals ]
; ai	aj	ak	al	funct	q0	cq
   16    15    18    17     2
   25    24    27    26     2

#ifdef POSRES
[ position_restraints ]
    1     1     0.0             0.0            POSRES_FC_LIPID
#endif

#ifdef DIHRES
[ dihedral_restraints ]
   10    21    13    15     1   -120.0      2.5       DIHRES_FC
   45    48    50    52     1      0.0      0.0       DIHRES_FC
   92    95    97    99     1      0.0      0.0       DIHRES_FC
#endif
