;;
;; Generated by CHARMM-GUI FF-Converter
;;
;; Correspondance:
;; jul316@lehigh.edu or wonpil@lehigh.edu
;;
;; GROMACS topology file for DOKC2
;;


[ moleculetype ]
; name	nrexcl
DOKC2	     3

[ atoms ]
; nr	type	resnr	residu	atom	cgnr	charge	mass
     1      NG301    213    DOKC2     N1      1    -0.630000    14.0070   ; qtot -0.630
     2     CG3AM0    213    DOKC2    CN1      2    -0.060000    12.0110   ; qtot -0.690
     3     HGAAM0    213    DOKC2   HN11      3     0.090000     1.0080   ; qtot -0.600
     4     HGAAM0    213    DOKC2   HN12      4     0.090000     1.0080   ; qtot -0.510
     5     HGAAM0    213    DOKC2   HN13      5     0.090000     1.0080   ; qtot -0.420
     6     CG3AM0    213    DOKC2    CN2      6    -0.060000    12.0110   ; qtot -0.480
     7     HGAAM0    213    DOKC2   HN21      7     0.090000     1.0080   ; qtot -0.390
     8     HGAAM0    213    DOKC2   HN22      8     0.090000     1.0080   ; qtot -0.300
     9     HGAAM0    213    DOKC2   HN23      9     0.090000     1.0080   ; qtot -0.210
    10      CG321    213    DOKC2     C1     10     0.030000    12.0110   ; qtot -0.180
    11       HGA2    213    DOKC2    H11     11     0.090000     1.0080   ; qtot -0.090
    12       HGA2    213    DOKC2    H12     12     0.090000     1.0080   ; qtot -0.000
    13      CG321    213    DOKC2     C2     13    -0.180000    12.0110   ; qtot -0.180
    14       HGA2    213    DOKC2    H21     14     0.090000     1.0080   ; qtot -0.090
    15       HGA2    213    DOKC2    H22     15     0.090000     1.0080   ; qtot -0.000
    16     OG3C51    213    DOKC2     O1     16    -0.400000    15.9994   ; qtot -0.400
    17     OG3C51    213    DOKC2     O2     17    -0.400000    15.9994   ; qtot -0.800
    18     CG3C51    213    DOKC2     C3     18     0.050000    12.0110   ; qtot -0.750
    19       HGA1    213    DOKC2    H31     19     0.090000     1.0080   ; qtot -0.660
    20     CG3C52    213    DOKC2     C4     20     0.050000    12.0110   ; qtot -0.610
    21       HGA2    213    DOKC2    H41     21     0.090000     1.0080   ; qtot -0.520
    22       HGA2    213    DOKC2    H42     22     0.090000     1.0080   ; qtot -0.430
    23     CG3C50    213    DOKC2     C5     23     0.430000    12.0110   ; qtot -0.000
    24       CTL2    213    DOKC2    C11     24    -0.180000    12.0110   ; qtot -0.180
    25       HAL2    213    DOKC2   H11R     25     0.090000     1.0080   ; qtot -0.090
    26       HAL2    213    DOKC2   H11S     26     0.090000     1.0080   ; qtot -0.000
    27       CTL2    213    DOKC2    C12     27    -0.180000    12.0110   ; qtot -0.180
    28       HAL2    213    DOKC2   H12R     28     0.090000     1.0080   ; qtot -0.090
    29       HAL2    213    DOKC2   H12S     29     0.090000     1.0080   ; qtot -0.000
    30       CTL2    213    DOKC2    C13     30    -0.180000    12.0110   ; qtot -0.180
    31       HAL2    213    DOKC2   H13R     31     0.090000     1.0080   ; qtot -0.090
    32       HAL2    213    DOKC2   H13S     32     0.090000     1.0080   ; qtot -0.000
    33       CTL2    213    DOKC2    C14     33    -0.180000    12.0110   ; qtot -0.180
    34       HAL2    213    DOKC2   H14R     34     0.090000     1.0080   ; qtot -0.090
    35       HAL2    213    DOKC2   H14S     35     0.090000     1.0080   ; qtot -0.000
    36       CTL2    213    DOKC2    C15     36    -0.180000    12.0110   ; qtot -0.180
    37       HAL2    213    DOKC2   H15R     37     0.090000     1.0080   ; qtot -0.090
    38       HAL2    213    DOKC2   H15S     38     0.090000     1.0080   ; qtot -0.000
    39       CTL2    213    DOKC2    C16     39    -0.180000    12.0110   ; qtot -0.180
    40       HAL2    213    DOKC2   H16R     40     0.090000     1.0080   ; qtot -0.090
    41       HAL2    213    DOKC2   H16S     41     0.090000     1.0080   ; qtot -0.000
    42       CTL2    213    DOKC2    C17     42    -0.180000    12.0110   ; qtot -0.180
    43       HAL2    213    DOKC2   H17R     43     0.090000     1.0080   ; qtot -0.090
    44       HAL2    213    DOKC2   H17S     44     0.090000     1.0080   ; qtot -0.000
    45       CTL2    213    DOKC2    C18     45    -0.180000    12.0110   ; qtot -0.180
    46       HAL2    213    DOKC2   H18R     46     0.090000     1.0080   ; qtot -0.090
    47       HAL2    213    DOKC2   H18S     47     0.090000     1.0080   ; qtot -0.000
    48       CEL1    213    DOKC2    C19     48    -0.150000    12.0110   ; qtot -0.150
    49       HEL1    213    DOKC2   H19R     49     0.150000     1.0080   ; qtot -0.000
    50       CEL1    213    DOKC2   C110     50    -0.150000    12.0110   ; qtot -0.150
    51       HEL1    213    DOKC2  H110R     51     0.150000     1.0080   ; qtot -0.000
    52       CTL2    213    DOKC2   C111     52    -0.180000    12.0110   ; qtot -0.180
    53       HAL2    213    DOKC2  H111R     53     0.090000     1.0080   ; qtot -0.090
    54       HAL2    213    DOKC2  H111S     54     0.090000     1.0080   ; qtot -0.000
    55       CTL2    213    DOKC2   C112     55    -0.180000    12.0110   ; qtot -0.180
    56       HAL2    213    DOKC2  H112R     56     0.090000     1.0080   ; qtot -0.090
    57       HAL2    213    DOKC2  H112S     57     0.090000     1.0080   ; qtot -0.000
    58       CTL2    213    DOKC2   C113     58    -0.180000    12.0110   ; qtot -0.180
    59       HAL2    213    DOKC2  H113R     59     0.090000     1.0080   ; qtot -0.090
    60       HAL2    213    DOKC2  H113S     60     0.090000     1.0080   ; qtot -0.000
    61       CTL2    213    DOKC2   C114     61    -0.180000    12.0110   ; qtot -0.180
    62       HAL2    213    DOKC2  H114R     62     0.090000     1.0080   ; qtot -0.090
    63       HAL2    213    DOKC2  H114S     63     0.090000     1.0080   ; qtot -0.000
    64       CTL2    213    DOKC2   C115     64    -0.180000    12.0110   ; qtot -0.180
    65       HAL2    213    DOKC2  H115R     65     0.090000     1.0080   ; qtot -0.090
    66       HAL2    213    DOKC2  H115S     66     0.090000     1.0080   ; qtot -0.000
    67       CTL2    213    DOKC2   C116     67    -0.180000    12.0110   ; qtot -0.180
    68       HAL2    213    DOKC2  H116R     68     0.090000     1.0080   ; qtot -0.090
    69       HAL2    213    DOKC2  H116S     69     0.090000     1.0080   ; qtot -0.000
    70       CTL2    213    DOKC2   C117     70    -0.180000    12.0110   ; qtot -0.180
    71       HAL2    213    DOKC2  H117R     71     0.090000     1.0080   ; qtot -0.090
    72       HAL2    213    DOKC2  H117S     72     0.090000     1.0080   ; qtot -0.000
    73       CTL3    213    DOKC2   C118     73    -0.270000    12.0110   ; qtot -0.270
    74       HAL3    213    DOKC2  H118R     74     0.090000     1.0080   ; qtot -0.180
    75       HAL3    213    DOKC2  H118S     75     0.090000     1.0080   ; qtot -0.090
    76       HAL3    213    DOKC2  H118T     76     0.090000     1.0080   ; qtot -0.000
    77       CTL2    213    DOKC2    C21     77    -0.180000    12.0110   ; qtot -0.180
    78       HAL2    213    DOKC2   H21R     78     0.090000     1.0080   ; qtot -0.090
    79       HAL2    213    DOKC2   H21S     79     0.090000     1.0080   ; qtot -0.000
    80       CTL2    213    DOKC2    C22     80    -0.180000    12.0110   ; qtot -0.180
    81       HAL2    213    DOKC2   H22R     81     0.090000     1.0080   ; qtot -0.090
    82       HAL2    213    DOKC2   H22S     82     0.090000     1.0080   ; qtot -0.000
    83       CTL2    213    DOKC2    C23     83    -0.180000    12.0110   ; qtot -0.180
    84       HAL2    213    DOKC2   H23R     84     0.090000     1.0080   ; qtot -0.090
    85       HAL2    213    DOKC2   H23S     85     0.090000     1.0080   ; qtot -0.000
    86       CTL2    213    DOKC2    C24     86    -0.180000    12.0110   ; qtot -0.180
    87       HAL2    213    DOKC2   H24R     87     0.090000     1.0080   ; qtot -0.090
    88       HAL2    213    DOKC2   H24S     88     0.090000     1.0080   ; qtot -0.000
    89       CTL2    213    DOKC2    C25     89    -0.180000    12.0110   ; qtot -0.180
    90       HAL2    213    DOKC2   H25R     90     0.090000     1.0080   ; qtot -0.090
    91       HAL2    213    DOKC2   H25S     91     0.090000     1.0080   ; qtot -0.000
    92       CTL2    213    DOKC2    C26     92    -0.180000    12.0110   ; qtot -0.180
    93       HAL2    213    DOKC2   H26R     93     0.090000     1.0080   ; qtot -0.090
    94       HAL2    213    DOKC2   H26S     94     0.090000     1.0080   ; qtot -0.000
    95       CTL2    213    DOKC2    C27     95    -0.180000    12.0110   ; qtot -0.180
    96       HAL2    213    DOKC2   H27R     96     0.090000     1.0080   ; qtot -0.090
    97       HAL2    213    DOKC2   H27S     97     0.090000     1.0080   ; qtot -0.000
    98       CTL2    213    DOKC2    C28     98    -0.180000    12.0110   ; qtot -0.180
    99       HAL2    213    DOKC2   H28R     99     0.090000     1.0080   ; qtot -0.090
   100       HAL2    213    DOKC2   H28S    100     0.090000     1.0080   ; qtot -0.000
   101       CEL1    213    DOKC2    C29    101    -0.150000    12.0110   ; qtot -0.150
   102       HEL1    213    DOKC2   H29R    102     0.150000     1.0080   ; qtot -0.000
   103       CEL1    213    DOKC2   C210    103    -0.150000    12.0110   ; qtot -0.150
   104       HEL1    213    DOKC2  H210R    104     0.150000     1.0080   ; qtot -0.000
   105       CTL2    213    DOKC2   C211    105    -0.180000    12.0110   ; qtot -0.180
   106       HAL2    213    DOKC2  H211R    106     0.090000     1.0080   ; qtot -0.090
   107       HAL2    213    DOKC2  H211S    107     0.090000     1.0080   ; qtot -0.000
   108       CTL2    213    DOKC2   C212    108    -0.180000    12.0110   ; qtot -0.180
   109       HAL2    213    DOKC2  H212R    109     0.090000     1.0080   ; qtot -0.090
   110       HAL2    213    DOKC2  H212S    110     0.090000     1.0080   ; qtot -0.000
   111       CTL2    213    DOKC2   C213    111    -0.180000    12.0110   ; qtot -0.180
   112       HAL2    213    DOKC2  H213R    112     0.090000     1.0080   ; qtot -0.090
   113       HAL2    213    DOKC2  H213S    113     0.090000     1.0080   ; qtot -0.000
   114       CTL2    213    DOKC2   C214    114    -0.180000    12.0110   ; qtot -0.180
   115       HAL2    213    DOKC2  H214R    115     0.090000     1.0080   ; qtot -0.090
   116       HAL2    213    DOKC2  H214S    116     0.090000     1.0080   ; qtot -0.000
   117       CTL2    213    DOKC2   C215    117    -0.180000    12.0110   ; qtot -0.180
   118       HAL2    213    DOKC2  H215R    118     0.090000     1.0080   ; qtot -0.090
   119       HAL2    213    DOKC2  H215S    119     0.090000     1.0080   ; qtot -0.000
   120       CTL2    213    DOKC2   C216    120    -0.180000    12.0110   ; qtot -0.180
   121       HAL2    213    DOKC2  H216R    121     0.090000     1.0080   ; qtot -0.090
   122       HAL2    213    DOKC2  H216S    122     0.090000     1.0080   ; qtot -0.000
   123       CTL2    213    DOKC2   C217    123    -0.180000    12.0110   ; qtot -0.180
   124       HAL2    213    DOKC2  H217R    124     0.090000     1.0080   ; qtot -0.090
   125       HAL2    213    DOKC2  H217S    125     0.090000     1.0080   ; qtot -0.000
   126       CTL3    213    DOKC2   C218    126    -0.270000    12.0110   ; qtot -0.270
   127       HAL3    213    DOKC2  H218R    127     0.090000     1.0080   ; qtot -0.180
   128       HAL3    213    DOKC2  H218S    128     0.090000     1.0080   ; qtot -0.090
   129       HAL3    213    DOKC2  H218T    129     0.090000     1.0080   ; qtot -0.000

[ bonds ]
; ai	aj	funct	b0	Kb
    1     2     1
    1     6     1
    1    10     1
    2     3     1
    2     4     1
    2     5     1
    6     7     1
    6     8     1
    6     9     1
   10    11     1
   10    12     1
   10    13     1
   13    14     1
   13    15     1
   13    18     1
   18    16     1
   16    23     1
   17    20     1
   23    17     1
   18    19     1
   18    20     1
   20    21     1
   20    22     1
   23    24     1
   23    77     1
   24    25     1
   24    26     1
   24    27     1
   27    28     1
   27    29     1
   27    30     1
   30    31     1
   30    32     1
   30    33     1
   33    34     1
   33    35     1
   33    36     1
   36    37     1
   36    38     1
   36    39     1
   39    40     1
   39    41     1
   39    42     1
   42    43     1
   42    44     1
   42    45     1
   45    46     1
   45    47     1
   45    48     1
   48    49     1
   48    50     1
   50    51     1
   50    52     1
   52    53     1
   52    54     1
   52    55     1
   55    56     1
   55    57     1
   55    58     1
   58    59     1
   58    60     1
   58    61     1
   61    62     1
   61    63     1
   61    64     1
   64    65     1
   64    66     1
   64    67     1
   67    68     1
   67    69     1
   67    70     1
   70    71     1
   70    72     1
   70    73     1
   73    74     1
   73    75     1
   73    76     1
   77    78     1
   77    79     1
   77    80     1
   80    81     1
   80    82     1
   80    83     1
   83    84     1
   83    85     1
   83    86     1
   86    87     1
   86    88     1
   86    89     1
   89    90     1
   89    91     1
   89    92     1
   92    93     1
   92    94     1
   92    95     1
   95    96     1
   95    97     1
   95    98     1
   98    99     1
   98   100     1
   98   101     1
  101   102     1
  101   103     1
  103   104     1
  103   105     1
  105   106     1
  105   107     1
  105   108     1
  108   109     1
  108   110     1
  108   111     1
  111   112     1
  111   113     1
  111   114     1
  114   115     1
  114   116     1
  114   117     1
  117   118     1
  117   119     1
  117   120     1
  120   121     1
  120   122     1
  120   123     1
  123   124     1
  123   125     1
  123   126     1
  126   127     1
  126   128     1
  126   129     1

[ pairs ]
; ai	aj	funct	c6	c12 or
; ai	aj	funct	fudgeQQ	q1	q2	c6	c12
    1    14     1
    1    15     1
    1    18     1
    2     7     1
    2     8     1
    2     9     1
    2    11     1
    2    12     1
    2    13     1
    3     6     1
    3    10     1
    4     6     1
    4    10     1
    5     6     1
    5    10     1
    6    11     1
    6    12     1
    6    13     1
    7    10     1
    8    10     1
    9    10     1
   10    16     1
   10    19     1
   10    20     1
   11    14     1
   11    15     1
   11    18     1
   12    14     1
   12    15     1
   12    18     1
   13    17     1
   13    21     1
   13    22     1
   13    23     1
   14    16     1
   14    19     1
   14    20     1
   15    16     1
   15    19     1
   15    20     1
   16    21     1
   16    22     1
   16    25     1
   16    26     1
   16    27     1
   16    78     1
   16    79     1
   16    80     1
   17    19     1
   17    25     1
   17    26     1
   17    27     1
   17    78     1
   17    79     1
   17    80     1
   18    24     1
   18    77     1
   19    21     1
   19    22     1
   19    23     1
   20    24     1
   20    77     1
   21    23     1
   22    23     1
   23    28     1
   23    29     1
   23    30     1
   23    81     1
   23    82     1
   23    83     1
   24    31     1
   24    32     1
   24    33     1
   24    78     1
   24    79     1
   24    80     1
   25    28     1
   25    29     1
   25    30     1
   25    77     1
   26    28     1
   26    29     1
   26    30     1
   26    77     1
   27    34     1
   27    35     1
   27    36     1
   27    77     1
   28    31     1
   28    32     1
   28    33     1
   29    31     1
   29    32     1
   29    33     1
   30    37     1
   30    38     1
   30    39     1
   31    34     1
   31    35     1
   31    36     1
   32    34     1
   32    35     1
   32    36     1
   33    40     1
   33    41     1
   33    42     1
   34    37     1
   34    38     1
   34    39     1
   35    37     1
   35    38     1
   35    39     1
   36    43     1
   36    44     1
   36    45     1
   37    40     1
   37    41     1
   37    42     1
   38    40     1
   38    41     1
   38    42     1
   39    46     1
   39    47     1
   39    48     1
   40    43     1
   40    44     1
   40    45     1
   41    43     1
   41    44     1
   41    45     1
   42    49     1
   42    50     1
   43    46     1
   43    47     1
   43    48     1
   44    46     1
   44    47     1
   44    48     1
   45    51     1
   45    52     1
   46    49     1
   46    50     1
   47    49     1
   47    50     1
   48    53     1
   48    54     1
   48    55     1
   49    51     1
   49    52     1
   50    56     1
   50    57     1
   50    58     1
   51    53     1
   51    54     1
   51    55     1
   52    59     1
   52    60     1
   52    61     1
   53    56     1
   53    57     1
   53    58     1
   54    56     1
   54    57     1
   54    58     1
   55    62     1
   55    63     1
   55    64     1
   56    59     1
   56    60     1
   56    61     1
   57    59     1
   57    60     1
   57    61     1
   58    65     1
   58    66     1
   58    67     1
   59    62     1
   59    63     1
   59    64     1
   60    62     1
   60    63     1
   60    64     1
   61    68     1
   61    69     1
   61    70     1
   62    65     1
   62    66     1
   62    67     1
   63    65     1
   63    66     1
   63    67     1
   64    71     1
   64    72     1
   64    73     1
   65    68     1
   65    69     1
   65    70     1
   66    68     1
   66    69     1
   66    70     1
   67    74     1
   67    75     1
   67    76     1
   68    71     1
   68    72     1
   68    73     1
   69    71     1
   69    72     1
   69    73     1
   71    74     1
   71    75     1
   71    76     1
   72    74     1
   72    75     1
   72    76     1
   77    84     1
   77    85     1
   77    86     1
   78    81     1
   78    82     1
   78    83     1
   79    81     1
   79    82     1
   79    83     1
   80    87     1
   80    88     1
   80    89     1
   81    84     1
   81    85     1
   81    86     1
   82    84     1
   82    85     1
   82    86     1
   83    90     1
   83    91     1
   83    92     1
   84    87     1
   84    88     1
   84    89     1
   85    87     1
   85    88     1
   85    89     1
   86    93     1
   86    94     1
   86    95     1
   87    90     1
   87    91     1
   87    92     1
   88    90     1
   88    91     1
   88    92     1
   89    96     1
   89    97     1
   89    98     1
   90    93     1
   90    94     1
   90    95     1
   91    93     1
   91    94     1
   91    95     1
   92    99     1
   92   100     1
   92   101     1
   93    96     1
   93    97     1
   93    98     1
   94    96     1
   94    97     1
   94    98     1
   95   102     1
   95   103     1
   96    99     1
   96   100     1
   96   101     1
   97    99     1
   97   100     1
   97   101     1
   98   104     1
   98   105     1
   99   102     1
   99   103     1
  100   102     1
  100   103     1
  101   106     1
  101   107     1
  101   108     1
  102   104     1
  102   105     1
  103   109     1
  103   110     1
  103   111     1
  104   106     1
  104   107     1
  104   108     1
  105   112     1
  105   113     1
  105   114     1
  106   109     1
  106   110     1
  106   111     1
  107   109     1
  107   110     1
  107   111     1
  108   115     1
  108   116     1
  108   117     1
  109   112     1
  109   113     1
  109   114     1
  110   112     1
  110   113     1
  110   114     1
  111   118     1
  111   119     1
  111   120     1
  112   115     1
  112   116     1
  112   117     1
  113   115     1
  113   116     1
  113   117     1
  114   121     1
  114   122     1
  114   123     1
  115   118     1
  115   119     1
  115   120     1
  116   118     1
  116   119     1
  116   120     1
  117   124     1
  117   125     1
  117   126     1
  118   121     1
  118   122     1
  118   123     1
  119   121     1
  119   122     1
  119   123     1
  120   127     1
  120   128     1
  120   129     1
  121   124     1
  121   125     1
  121   126     1
  122   124     1
  122   125     1
  122   126     1
  124   127     1
  124   128     1
  124   129     1
  125   127     1
  125   128     1
  125   129     1

[ angles ] 
; ai	aj	ak	funct	th0	cth	S0	Kub
    2     1     6     5
    2     1    10     5
    6     1    10     5
    1     2     3     5
    1     2     4     5
    1     2     5     5
    3     2     4     5
    3     2     5     5
    4     2     5     5
    1     6     7     5
    1     6     8     5
    1     6     9     5
    7     6     8     5
    7     6     9     5
    8     6     9     5
    1    10    11     5
    1    10    12     5
    1    10    13     5
   11    10    12     5
   11    10    13     5
   12    10    13     5
   10    13    14     5
   10    13    15     5
   10    13    18     5
   14    13    15     5
   14    13    18     5
   15    13    18     5
   18    16    23     5
   20    17    23     5
   13    18    16     5
   13    18    19     5
   13    18    20     5
   16    18    19     5
   16    18    20     5
   19    18    20     5
   17    20    18     5
   17    20    21     5
   17    20    22     5
   18    20    21     5
   18    20    22     5
   21    20    22     5
   16    23    17     5
   16    23    24     5
   16    23    77     5
   17    23    24     5
   17    23    77     5
   24    23    77     5
   23    24    25     5
   23    24    26     5
   23    24    27     5
   25    24    26     5
   25    24    27     5
   26    24    27     5
   24    27    28     5
   24    27    29     5
   24    27    30     5
   28    27    29     5
   28    27    30     5
   29    27    30     5
   27    30    31     5
   27    30    32     5
   27    30    33     5
   31    30    32     5
   31    30    33     5
   32    30    33     5
   30    33    34     5
   30    33    35     5
   30    33    36     5
   34    33    35     5
   34    33    36     5
   35    33    36     5
   33    36    37     5
   33    36    38     5
   33    36    39     5
   37    36    38     5
   37    36    39     5
   38    36    39     5
   36    39    40     5
   36    39    41     5
   36    39    42     5
   40    39    41     5
   40    39    42     5
   41    39    42     5
   39    42    43     5
   39    42    44     5
   39    42    45     5
   43    42    44     5
   43    42    45     5
   44    42    45     5
   42    45    46     5
   42    45    47     5
   42    45    48     5
   46    45    47     5
   46    45    48     5
   47    45    48     5
   45    48    49     5
   45    48    50     5
   49    48    50     5
   48    50    51     5
   48    50    52     5
   51    50    52     5
   50    52    53     5
   50    52    54     5
   50    52    55     5
   53    52    54     5
   53    52    55     5
   54    52    55     5
   52    55    56     5
   52    55    57     5
   52    55    58     5
   56    55    57     5
   56    55    58     5
   57    55    58     5
   55    58    59     5
   55    58    60     5
   55    58    61     5
   59    58    60     5
   59    58    61     5
   60    58    61     5
   58    61    62     5
   58    61    63     5
   58    61    64     5
   62    61    63     5
   62    61    64     5
   63    61    64     5
   61    64    65     5
   61    64    66     5
   61    64    67     5
   65    64    66     5
   65    64    67     5
   66    64    67     5
   64    67    68     5
   64    67    69     5
   64    67    70     5
   68    67    69     5
   68    67    70     5
   69    67    70     5
   67    70    71     5
   67    70    72     5
   67    70    73     5
   71    70    72     5
   71    70    73     5
   72    70    73     5
   70    73    74     5
   70    73    75     5
   70    73    76     5
   74    73    75     5
   74    73    76     5
   75    73    76     5
   23    77    78     5
   23    77    79     5
   23    77    80     5
   78    77    79     5
   78    77    80     5
   79    77    80     5
   77    80    81     5
   77    80    82     5
   77    80    83     5
   81    80    82     5
   81    80    83     5
   82    80    83     5
   80    83    84     5
   80    83    85     5
   80    83    86     5
   84    83    85     5
   84    83    86     5
   85    83    86     5
   83    86    87     5
   83    86    88     5
   83    86    89     5
   87    86    88     5
   87    86    89     5
   88    86    89     5
   86    89    90     5
   86    89    91     5
   86    89    92     5
   90    89    91     5
   90    89    92     5
   91    89    92     5
   89    92    93     5
   89    92    94     5
   89    92    95     5
   93    92    94     5
   93    92    95     5
   94    92    95     5
   92    95    96     5
   92    95    97     5
   92    95    98     5
   96    95    97     5
   96    95    98     5
   97    95    98     5
   95    98    99     5
   95    98   100     5
   95    98   101     5
   99    98   100     5
   99    98   101     5
  100    98   101     5
   98   101   102     5
   98   101   103     5
  102   101   103     5
  101   103   104     5
  101   103   105     5
  104   103   105     5
  103   105   106     5
  103   105   107     5
  103   105   108     5
  106   105   107     5
  106   105   108     5
  107   105   108     5
  105   108   109     5
  105   108   110     5
  105   108   111     5
  109   108   110     5
  109   108   111     5
  110   108   111     5
  108   111   112     5
  108   111   113     5
  108   111   114     5
  112   111   113     5
  112   111   114     5
  113   111   114     5
  111   114   115     5
  111   114   116     5
  111   114   117     5
  115   114   116     5
  115   114   117     5
  116   114   117     5
  114   117   118     5
  114   117   119     5
  114   117   120     5
  118   117   119     5
  118   117   120     5
  119   117   120     5
  117   120   121     5
  117   120   122     5
  117   120   123     5
  121   120   122     5
  121   120   123     5
  122   120   123     5
  120   123   124     5
  120   123   125     5
  120   123   126     5
  124   123   125     5
  124   123   126     5
  125   123   126     5
  123   126   127     5
  123   126   128     5
  123   126   129     5
  127   126   128     5
  127   126   129     5
  128   126   129     5

[ dihedrals ]
; ai	aj	ak	al	funct	phi0	cp	mult
    2     1     6     7     9
    2     1     6     8     9
    2     1     6     9     9
    2     1    10    11     9
    2     1    10    12     9
    2     1    10    13     9
    6     1    10    11     9
    6     1    10    12     9
    6     1    10    13     9
    3     2     1     6     9
    3     2     1    10     9
    4     2     1     6     9
    4     2     1    10     9
    5     2     1     6     9
    5     2     1    10     9
    7     6     1    10     9
    8     6     1    10     9
    9     6     1    10     9
    1    10    13    14     9
    1    10    13    15     9
    1    10    13    18     9
   11    10    13    14     9
   11    10    13    15     9
   11    10    13    18     9
   12    10    13    14     9
   12    10    13    15     9
   12    10    13    18     9
   10    13    18    16     9
   10    13    18    19     9
   10    13    18    20     9
   14    13    18    16     9
   14    13    18    19     9
   14    13    18    20     9
   15    13    18    16     9
   15    13    18    19     9
   15    13    18    20     9
   18    16    23    24     9
   18    16    23    77     9
   20    17    23    24     9
   20    17    23    77     9
   13    18    16    23     9
   19    18    16    23     9
   20    18    16    23     9
   13    18    20    17     9
   13    18    20    21     9
   13    18    20    22     9
   16    18    20    17     9
   16    18    20    21     9
   16    18    20    22     9
   19    18    20    21     9
   19    18    20    22     9
   18    20    17    23     9
   21    20    17    23     9
   22    20    17    23     9
   17    20    18    19     9
   17    23    16    18     9
   16    23    17    20     9
   16    23    24    25     9
   16    23    24    26     9
   16    23    24    27     9
   17    23    24    25     9
   17    23    24    26     9
   17    23    24    27     9
   16    23    77    78     9
   16    23    77    79     9
   16    23    77    80     9
   17    23    77    78     9
   17    23    77    79     9
   17    23    77    80     9
   24    23    77    78     9
   24    23    77    79     9
   24    23    77    80     9
   25    24    23    77     9
   26    24    23    77     9
   27    24    23    77     9
   23    24    27    28     9
   23    24    27    29     9
   23    24    27    30     9
   25    24    27    28     9
   25    24    27    29     9
   25    24    27    30     9
   26    24    27    28     9
   26    24    27    29     9
   26    24    27    30     9
   24    27    30    31     9
   24    27    30    32     9
   24    27    30    33     9
   28    27    30    31     9
   28    27    30    32     9
   28    27    30    33     9
   29    27    30    31     9
   29    27    30    32     9
   29    27    30    33     9
   27    30    33    34     9
   27    30    33    35     9
   27    30    33    36     9
   31    30    33    34     9
   31    30    33    35     9
   31    30    33    36     9
   32    30    33    34     9
   32    30    33    35     9
   32    30    33    36     9
   30    33    36    37     9
   30    33    36    38     9
   30    33    36    39     9
   34    33    36    37     9
   34    33    36    38     9
   34    33    36    39     9
   35    33    36    37     9
   35    33    36    38     9
   35    33    36    39     9
   33    36    39    40     9
   33    36    39    41     9
   33    36    39    42     9
   37    36    39    40     9
   37    36    39    41     9
   37    36    39    42     9
   38    36    39    40     9
   38    36    39    41     9
   38    36    39    42     9
   36    39    42    43     9
   36    39    42    44     9
   36    39    42    45     9
   40    39    42    43     9
   40    39    42    44     9
   40    39    42    45     9
   41    39    42    43     9
   41    39    42    44     9
   41    39    42    45     9
   39    42    45    46     9
   39    42    45    47     9
   39    42    45    48     9
   43    42    45    46     9
   43    42    45    47     9
   43    42    45    48     9
   44    42    45    46     9
   44    42    45    47     9
   44    42    45    48     9
   42    45    48    49     9
   42    45    48    50     9
   46    45    48    49     9
   46    45    48    50     9
   47    45    48    49     9
   47    45    48    50     9
   45    48    50    51     9
   45    48    50    52     9
   49    48    50    51     9
   49    48    50    52     9
   48    50    52    53     9
   48    50    52    54     9
   48    50    52    55     9
   51    50    52    53     9
   51    50    52    54     9
   51    50    52    55     9
   50    52    55    56     9
   50    52    55    57     9
   50    52    55    58     9
   53    52    55    56     9
   53    52    55    57     9
   53    52    55    58     9
   54    52    55    56     9
   54    52    55    57     9
   54    52    55    58     9
   52    55    58    59     9
   52    55    58    60     9
   52    55    58    61     9
   56    55    58    59     9
   56    55    58    60     9
   56    55    58    61     9
   57    55    58    59     9
   57    55    58    60     9
   57    55    58    61     9
   55    58    61    62     9
   55    58    61    63     9
   55    58    61    64     9
   59    58    61    62     9
   59    58    61    63     9
   59    58    61    64     9
   60    58    61    62     9
   60    58    61    63     9
   60    58    61    64     9
   58    61    64    65     9
   58    61    64    66     9
   58    61    64    67     9
   62    61    64    65     9
   62    61    64    66     9
   62    61    64    67     9
   63    61    64    65     9
   63    61    64    66     9
   63    61    64    67     9
   61    64    67    68     9
   61    64    67    69     9
   61    64    67    70     9
   65    64    67    68     9
   65    64    67    69     9
   65    64    67    70     9
   66    64    67    68     9
   66    64    67    69     9
   66    64    67    70     9
   64    67    70    71     9
   64    67    70    72     9
   64    67    70    73     9
   68    67    70    71     9
   68    67    70    72     9
   68    67    70    73     9
   69    67    70    71     9
   69    67    70    72     9
   69    67    70    73     9
   67    70    73    74     9
   67    70    73    75     9
   67    70    73    76     9
   71    70    73    74     9
   71    70    73    75     9
   71    70    73    76     9
   72    70    73    74     9
   72    70    73    75     9
   72    70    73    76     9
   23    77    80    81     9
   23    77    80    82     9
   23    77    80    83     9
   78    77    80    81     9
   78    77    80    82     9
   78    77    80    83     9
   79    77    80    81     9
   79    77    80    82     9
   79    77    80    83     9
   77    80    83    84     9
   77    80    83    85     9
   77    80    83    86     9
   81    80    83    84     9
   81    80    83    85     9
   81    80    83    86     9
   82    80    83    84     9
   82    80    83    85     9
   82    80    83    86     9
   80    83    86    87     9
   80    83    86    88     9
   80    83    86    89     9
   84    83    86    87     9
   84    83    86    88     9
   84    83    86    89     9
   85    83    86    87     9
   85    83    86    88     9
   85    83    86    89     9
   83    86    89    90     9
   83    86    89    91     9
   83    86    89    92     9
   87    86    89    90     9
   87    86    89    91     9
   87    86    89    92     9
   88    86    89    90     9
   88    86    89    91     9
   88    86    89    92     9
   86    89    92    93     9
   86    89    92    94     9
   86    89    92    95     9
   90    89    92    93     9
   90    89    92    94     9
   90    89    92    95     9
   91    89    92    93     9
   91    89    92    94     9
   91    89    92    95     9
   89    92    95    96     9
   89    92    95    97     9
   89    92    95    98     9
   93    92    95    96     9
   93    92    95    97     9
   93    92    95    98     9
   94    92    95    96     9
   94    92    95    97     9
   94    92    95    98     9
   92    95    98    99     9
   92    95    98   100     9
   92    95    98   101     9
   96    95    98    99     9
   96    95    98   100     9
   96    95    98   101     9
   97    95    98    99     9
   97    95    98   100     9
   97    95    98   101     9
   95    98   101   102     9
   95    98   101   103     9
   99    98   101   102     9
   99    98   101   103     9
  100    98   101   102     9
  100    98   101   103     9
   98   101   103   104     9
   98   101   103   105     9
  102   101   103   104     9
  102   101   103   105     9
  101   103   105   106     9
  101   103   105   107     9
  101   103   105   108     9
  104   103   105   106     9
  104   103   105   107     9
  104   103   105   108     9
  103   105   108   109     9
  103   105   108   110     9
  103   105   108   111     9
  106   105   108   109     9
  106   105   108   110     9
  106   105   108   111     9
  107   105   108   109     9
  107   105   108   110     9
  107   105   108   111     9
  105   108   111   112     9
  105   108   111   113     9
  105   108   111   114     9
  109   108   111   112     9
  109   108   111   113     9
  109   108   111   114     9
  110   108   111   112     9
  110   108   111   113     9
  110   108   111   114     9
  108   111   114   115     9
  108   111   114   116     9
  108   111   114   117     9
  112   111   114   115     9
  112   111   114   116     9
  112   111   114   117     9
  113   111   114   115     9
  113   111   114   116     9
  113   111   114   117     9
  111   114   117   118     9
  111   114   117   119     9
  111   114   117   120     9
  115   114   117   118     9
  115   114   117   119     9
  115   114   117   120     9
  116   114   117   118     9
  116   114   117   119     9
  116   114   117   120     9
  114   117   120   121     9
  114   117   120   122     9
  114   117   120   123     9
  118   117   120   121     9
  118   117   120   122     9
  118   117   120   123     9
  119   117   120   121     9
  119   117   120   122     9
  119   117   120   123     9
  117   120   123   124     9
  117   120   123   125     9
  117   120   123   126     9
  121   120   123   124     9
  121   120   123   125     9
  121   120   123   126     9
  122   120   123   124     9
  122   120   123   125     9
  122   120   123   126     9
  120   123   126   127     9
  120   123   126   128     9
  120   123   126   129     9
  124   123   126   127     9
  124   123   126   128     9
  124   123   126   129     9
  125   123   126   127     9
  125   123   126   128     9
  125   123   126   129     9

#ifdef POSRES
[ position_restraints ]
    1     1     0.0             0.0            POSRES_FC_LIPID
#endif

#ifdef DIHRES
[ dihedral_restraints ]
   45    48    50    52     1      0.0      0.0       DIHRES_FC
   98   101   103   105     1      0.0      0.0       DIHRES_FC
#endif
