;;
;; Generated by CHARMM-GUI FF-Converter
;;
;; Correspondance:
;; jul316@lehigh.edu or wonpil@lehigh.edu
;;
;; GROMACS topology file for DOMC3H
;;


[ moleculetype ]
; name	nrexcl
DOMC3H	     3

[ atoms ]
; nr	type	resnr	residu	atom	cgnr	charge	mass
     1      NG3P1    145   DOMC3H     N1      1    -0.565000    14.0070   ; qtot -0.565
     2       HGP2    145   DOMC3H    HN4      2     0.320000     1.0080   ; qtot -0.245
     3      CG334    145   DOMC3H    CN1      3     0.145000    12.0110   ; qtot -0.100
     4       HGA3    145   DOMC3H   HN11      4     0.090000     1.0080   ; qtot -0.010
     5       HGA3    145   DOMC3H   HN12      5     0.090000     1.0080   ; qtot  0.080
     6       HGA3    145   DOMC3H   HN13      6     0.090000     1.0080   ; qtot  0.170
     7      CG334    145   DOMC3H    CN2      7     0.145000    12.0110   ; qtot  0.315
     8       HGA3    145   DOMC3H   HN21      8     0.090000     1.0080   ; qtot  0.405
     9       HGA3    145   DOMC3H   HN22      9     0.090000     1.0080   ; qtot  0.495
    10       HGA3    145   DOMC3H   HN23     10     0.090000     1.0080   ; qtot  0.585
    11      CG324    145   DOMC3H     C1     11     0.235000    12.0110   ; qtot  0.820
    12       HGA2    145   DOMC3H    H11     12     0.090000     1.0080   ; qtot  0.910
    13       HGA2    145   DOMC3H    H12     13     0.090000     1.0080   ; qtot  1.000
    14      CG321    145   DOMC3H     C2     14    -0.180000    12.0110   ; qtot  0.820
    15       HGA2    145   DOMC3H    H21     15     0.090000     1.0080   ; qtot  0.910
    16       HGA2    145   DOMC3H    H22     16     0.090000     1.0080   ; qtot  1.000
    17       CTL2    145   DOMC3H     C3     17    -0.220000    12.0110   ; qtot  0.780
    18       HAL2    145   DOMC3H    H31     18     0.090000     1.0080   ; qtot  0.870
    19       HAL2    145   DOMC3H    H32     19     0.090000     1.0080   ; qtot  0.960
    20        OSL    145   DOMC3H     O1     20    -0.490000    15.9994   ; qtot  0.470
    21         CL    145   DOMC3H     C4     21     0.900000    12.0110   ; qtot  1.370
    22        OBL    145   DOMC3H     O2     22    -0.630000    15.9994   ; qtot  0.740
    23       CTL1    145   DOMC3H     C5     23     0.170000    12.0110   ; qtot  0.910
    24       HAL1    145   DOMC3H     H5     24     0.090000     1.0080   ; qtot  1.000
    25       CTL2    145   DOMC3H    C11     25    -0.180000    12.0110   ; qtot  0.820
    26       HAL2    145   DOMC3H   H11R     26     0.090000     1.0080   ; qtot  0.910
    27       HAL2    145   DOMC3H   H11S     27     0.090000     1.0080   ; qtot  1.000
    28       CTL2    145   DOMC3H    C12     28    -0.180000    12.0110   ; qtot  0.820
    29       HAL2    145   DOMC3H   H12R     29     0.090000     1.0080   ; qtot  0.910
    30       HAL2    145   DOMC3H   H12S     30     0.090000     1.0080   ; qtot  1.000
    31       CTL2    145   DOMC3H    C13     31    -0.180000    12.0110   ; qtot  0.820
    32       HAL2    145   DOMC3H   H13R     32     0.090000     1.0080   ; qtot  0.910
    33       HAL2    145   DOMC3H   H13S     33     0.090000     1.0080   ; qtot  1.000
    34       CTL2    145   DOMC3H    C14     34    -0.180000    12.0110   ; qtot  0.820
    35       HAL2    145   DOMC3H   H14R     35     0.090000     1.0080   ; qtot  0.910
    36       HAL2    145   DOMC3H   H14S     36     0.090000     1.0080   ; qtot  1.000
    37       CTL2    145   DOMC3H    C15     37    -0.180000    12.0110   ; qtot  0.820
    38       HAL2    145   DOMC3H   H15R     38     0.090000     1.0080   ; qtot  0.910
    39       HAL2    145   DOMC3H   H15S     39     0.090000     1.0080   ; qtot  1.000
    40       CTL2    145   DOMC3H    C16     40    -0.180000    12.0110   ; qtot  0.820
    41       HAL2    145   DOMC3H   H16R     41     0.090000     1.0080   ; qtot  0.910
    42       HAL2    145   DOMC3H   H16S     42     0.090000     1.0080   ; qtot  1.000
    43       CTL2    145   DOMC3H    C17     43    -0.180000    12.0110   ; qtot  0.820
    44       HAL2    145   DOMC3H   H17R     44     0.090000     1.0080   ; qtot  0.910
    45       HAL2    145   DOMC3H   H17S     45     0.090000     1.0080   ; qtot  1.000
    46       CTL2    145   DOMC3H    C18     46    -0.180000    12.0110   ; qtot  0.820
    47       HAL2    145   DOMC3H   H18R     47     0.090000     1.0080   ; qtot  0.910
    48       HAL2    145   DOMC3H   H18S     48     0.090000     1.0080   ; qtot  1.000
    49       CEL1    145   DOMC3H    C19     49    -0.150000    12.0110   ; qtot  0.850
    50       HEL1    145   DOMC3H   H19R     50     0.150000     1.0080   ; qtot  1.000
    51       CEL1    145   DOMC3H   C110     51    -0.150000    12.0110   ; qtot  0.850
    52       HEL1    145   DOMC3H  H110R     52     0.150000     1.0080   ; qtot  1.000
    53       CTL2    145   DOMC3H   C111     53    -0.180000    12.0110   ; qtot  0.820
    54       HAL2    145   DOMC3H  H111R     54     0.090000     1.0080   ; qtot  0.910
    55       HAL2    145   DOMC3H  H111S     55     0.090000     1.0080   ; qtot  1.000
    56       CTL2    145   DOMC3H   C112     56    -0.180000    12.0110   ; qtot  0.820
    57       HAL2    145   DOMC3H  H112R     57     0.090000     1.0080   ; qtot  0.910
    58       HAL2    145   DOMC3H  H112S     58     0.090000     1.0080   ; qtot  1.000
    59       CTL2    145   DOMC3H   C113     59    -0.180000    12.0110   ; qtot  0.820
    60       HAL2    145   DOMC3H  H113R     60     0.090000     1.0080   ; qtot  0.910
    61       HAL2    145   DOMC3H  H113S     61     0.090000     1.0080   ; qtot  1.000
    62       CTL2    145   DOMC3H   C114     62    -0.180000    12.0110   ; qtot  0.820
    63       HAL2    145   DOMC3H  H114R     63     0.090000     1.0080   ; qtot  0.910
    64       HAL2    145   DOMC3H  H114S     64     0.090000     1.0080   ; qtot  1.000
    65       CTL2    145   DOMC3H   C115     65    -0.180000    12.0110   ; qtot  0.820
    66       HAL2    145   DOMC3H  H115R     66     0.090000     1.0080   ; qtot  0.910
    67       HAL2    145   DOMC3H  H115S     67     0.090000     1.0080   ; qtot  1.000
    68       CTL2    145   DOMC3H   C116     68    -0.180000    12.0110   ; qtot  0.820
    69       HAL2    145   DOMC3H  H116R     69     0.090000     1.0080   ; qtot  0.910
    70       HAL2    145   DOMC3H  H116S     70     0.090000     1.0080   ; qtot  1.000
    71       CTL2    145   DOMC3H   C117     71    -0.180000    12.0110   ; qtot  0.820
    72       HAL2    145   DOMC3H  H117R     72     0.090000     1.0080   ; qtot  0.910
    73       HAL2    145   DOMC3H  H117S     73     0.090000     1.0080   ; qtot  1.000
    74       CTL3    145   DOMC3H   C118     74    -0.270000    12.0110   ; qtot  0.730
    75       HAL3    145   DOMC3H  H118R     75     0.090000     1.0080   ; qtot  0.820
    76       HAL3    145   DOMC3H  H118S     76     0.090000     1.0080   ; qtot  0.910
    77       HAL3    145   DOMC3H  H118T     77     0.090000     1.0080   ; qtot  1.000
    78       CTL2    145   DOMC3H    C21     78    -0.180000    12.0110   ; qtot  0.820
    79       HAL2    145   DOMC3H   H21R     79     0.090000     1.0080   ; qtot  0.910
    80       HAL2    145   DOMC3H   H21S     80     0.090000     1.0080   ; qtot  1.000
    81       CTL2    145   DOMC3H    C22     81    -0.180000    12.0110   ; qtot  0.820
    82       HAL2    145   DOMC3H   H22R     82     0.090000     1.0080   ; qtot  0.910
    83       HAL2    145   DOMC3H   H22S     83     0.090000     1.0080   ; qtot  1.000
    84       CTL2    145   DOMC3H    C23     84    -0.180000    12.0110   ; qtot  0.820
    85       HAL2    145   DOMC3H   H23R     85     0.090000     1.0080   ; qtot  0.910
    86       HAL2    145   DOMC3H   H23S     86     0.090000     1.0080   ; qtot  1.000
    87       CTL2    145   DOMC3H    C24     87    -0.180000    12.0110   ; qtot  0.820
    88       HAL2    145   DOMC3H   H24R     88     0.090000     1.0080   ; qtot  0.910
    89       HAL2    145   DOMC3H   H24S     89     0.090000     1.0080   ; qtot  1.000
    90       CTL2    145   DOMC3H    C25     90    -0.180000    12.0110   ; qtot  0.820
    91       HAL2    145   DOMC3H   H25R     91     0.090000     1.0080   ; qtot  0.910
    92       HAL2    145   DOMC3H   H25S     92     0.090000     1.0080   ; qtot  1.000
    93       CTL2    145   DOMC3H    C26     93    -0.180000    12.0110   ; qtot  0.820
    94       HAL2    145   DOMC3H   H26R     94     0.090000     1.0080   ; qtot  0.910
    95       HAL2    145   DOMC3H   H26S     95     0.090000     1.0080   ; qtot  1.000
    96       CTL2    145   DOMC3H    C27     96    -0.180000    12.0110   ; qtot  0.820
    97       HAL2    145   DOMC3H   H27R     97     0.090000     1.0080   ; qtot  0.910
    98       HAL2    145   DOMC3H   H27S     98     0.090000     1.0080   ; qtot  1.000
    99       CTL2    145   DOMC3H    C28     99    -0.180000    12.0110   ; qtot  0.820
   100       HAL2    145   DOMC3H   H28R    100     0.090000     1.0080   ; qtot  0.910
   101       HAL2    145   DOMC3H   H28S    101     0.090000     1.0080   ; qtot  1.000
   102       CEL1    145   DOMC3H    C29    102    -0.150000    12.0110   ; qtot  0.850
   103       HEL1    145   DOMC3H   H29R    103     0.150000     1.0080   ; qtot  1.000
   104       CEL1    145   DOMC3H   C210    104    -0.150000    12.0110   ; qtot  0.850
   105       HEL1    145   DOMC3H  H210R    105     0.150000     1.0080   ; qtot  1.000
   106       CTL2    145   DOMC3H   C211    106    -0.180000    12.0110   ; qtot  0.820
   107       HAL2    145   DOMC3H  H211R    107     0.090000     1.0080   ; qtot  0.910
   108       HAL2    145   DOMC3H  H211S    108     0.090000     1.0080   ; qtot  1.000
   109       CTL2    145   DOMC3H   C212    109    -0.180000    12.0110   ; qtot  0.820
   110       HAL2    145   DOMC3H  H212R    110     0.090000     1.0080   ; qtot  0.910
   111       HAL2    145   DOMC3H  H212S    111     0.090000     1.0080   ; qtot  1.000
   112       CTL2    145   DOMC3H   C213    112    -0.180000    12.0110   ; qtot  0.820
   113       HAL2    145   DOMC3H  H213R    113     0.090000     1.0080   ; qtot  0.910
   114       HAL2    145   DOMC3H  H213S    114     0.090000     1.0080   ; qtot  1.000
   115       CTL2    145   DOMC3H   C214    115    -0.180000    12.0110   ; qtot  0.820
   116       HAL2    145   DOMC3H  H214R    116     0.090000     1.0080   ; qtot  0.910
   117       HAL2    145   DOMC3H  H214S    117     0.090000     1.0080   ; qtot  1.000
   118       CTL2    145   DOMC3H   C215    118    -0.180000    12.0110   ; qtot  0.820
   119       HAL2    145   DOMC3H  H215R    119     0.090000     1.0080   ; qtot  0.910
   120       HAL2    145   DOMC3H  H215S    120     0.090000     1.0080   ; qtot  1.000
   121       CTL2    145   DOMC3H   C216    121    -0.180000    12.0110   ; qtot  0.820
   122       HAL2    145   DOMC3H  H216R    122     0.090000     1.0080   ; qtot  0.910
   123       HAL2    145   DOMC3H  H216S    123     0.090000     1.0080   ; qtot  1.000
   124       CTL2    145   DOMC3H   C217    124    -0.180000    12.0110   ; qtot  0.820
   125       HAL2    145   DOMC3H  H217R    125     0.090000     1.0080   ; qtot  0.910
   126       HAL2    145   DOMC3H  H217S    126     0.090000     1.0080   ; qtot  1.000
   127       CTL3    145   DOMC3H   C218    127    -0.270000    12.0110   ; qtot  0.730
   128       HAL3    145   DOMC3H  H218R    128     0.090000     1.0080   ; qtot  0.820
   129       HAL3    145   DOMC3H  H218S    129     0.090000     1.0080   ; qtot  0.910
   130       HAL3    145   DOMC3H  H218T    130     0.090000     1.0080   ; qtot  1.000

[ bonds ]
; ai	aj	funct	b0	Kb
    1     2     1
    1     3     1
    1     7     1
    1    11     1
    3     4     1
    3     5     1
    3     6     1
    7     8     1
    7     9     1
    7    10     1
   11    12     1
   11    13     1
   11    14     1
   14    15     1
   14    16     1
   14    17     1
   17    18     1
   17    19     1
   17    21     1
   21    20     1
   20    23     1
   21    22     1
   23    24     1
   23    25     1
   23    78     1
   25    26     1
   25    27     1
   25    28     1
   28    29     1
   28    30     1
   28    31     1
   31    32     1
   31    33     1
   31    34     1
   34    35     1
   34    36     1
   34    37     1
   37    38     1
   37    39     1
   37    40     1
   40    41     1
   40    42     1
   40    43     1
   43    44     1
   43    45     1
   43    46     1
   46    47     1
   46    48     1
   46    49     1
   49    50     1
   49    51     1
   51    52     1
   51    53     1
   53    54     1
   53    55     1
   53    56     1
   56    57     1
   56    58     1
   56    59     1
   59    60     1
   59    61     1
   59    62     1
   62    63     1
   62    64     1
   62    65     1
   65    66     1
   65    67     1
   65    68     1
   68    69     1
   68    70     1
   68    71     1
   71    72     1
   71    73     1
   71    74     1
   74    75     1
   74    76     1
   74    77     1
   78    79     1
   78    80     1
   78    81     1
   81    82     1
   81    83     1
   81    84     1
   84    85     1
   84    86     1
   84    87     1
   87    88     1
   87    89     1
   87    90     1
   90    91     1
   90    92     1
   90    93     1
   93    94     1
   93    95     1
   93    96     1
   96    97     1
   96    98     1
   96    99     1
   99   100     1
   99   101     1
   99   102     1
  102   103     1
  102   104     1
  104   105     1
  104   106     1
  106   107     1
  106   108     1
  106   109     1
  109   110     1
  109   111     1
  109   112     1
  112   113     1
  112   114     1
  112   115     1
  115   116     1
  115   117     1
  115   118     1
  118   119     1
  118   120     1
  118   121     1
  121   122     1
  121   123     1
  121   124     1
  124   125     1
  124   126     1
  124   127     1
  127   128     1
  127   129     1
  127   130     1

[ pairs ]
; ai	aj	funct	c6	c12 or
; ai	aj	funct	fudgeQQ	q1	q2	c6	c12
    1    15     1
    1    16     1
    1    17     1
    2     4     1
    2     5     1
    2     6     1
    2     8     1
    2     9     1
    2    10     1
    2    12     1
    2    13     1
    2    14     1
    3     8     1
    3     9     1
    3    10     1
    3    12     1
    3    13     1
    3    14     1
    4     7     1
    4    11     1
    5     7     1
    5    11     1
    6     7     1
    6    11     1
    7    12     1
    7    13     1
    7    14     1
    8    11     1
    9    11     1
   10    11     1
   11    18     1
   11    19     1
   11    21     1
   12    15     1
   12    16     1
   12    17     1
   13    15     1
   13    16     1
   13    17     1
   14    20     1
   14    22     1
   15    18     1
   15    19     1
   15    21     1
   16    18     1
   16    19     1
   16    21     1
   17    23     1
   18    20     1
   18    22     1
   19    20     1
   19    22     1
   20    26     1
   20    27     1
   20    28     1
   20    79     1
   20    80     1
   20    81     1
   21    24     1
   21    25     1
   21    78     1
   22    23     1
   23    29     1
   23    30     1
   23    31     1
   23    82     1
   23    83     1
   23    84     1
   24    26     1
   24    27     1
   24    28     1
   24    79     1
   24    80     1
   24    81     1
   25    32     1
   25    33     1
   25    34     1
   25    79     1
   25    80     1
   25    81     1
   26    29     1
   26    30     1
   26    31     1
   26    78     1
   27    29     1
   27    30     1
   27    31     1
   27    78     1
   28    35     1
   28    36     1
   28    37     1
   28    78     1
   29    32     1
   29    33     1
   29    34     1
   30    32     1
   30    33     1
   30    34     1
   31    38     1
   31    39     1
   31    40     1
   32    35     1
   32    36     1
   32    37     1
   33    35     1
   33    36     1
   33    37     1
   34    41     1
   34    42     1
   34    43     1
   35    38     1
   35    39     1
   35    40     1
   36    38     1
   36    39     1
   36    40     1
   37    44     1
   37    45     1
   37    46     1
   38    41     1
   38    42     1
   38    43     1
   39    41     1
   39    42     1
   39    43     1
   40    47     1
   40    48     1
   40    49     1
   41    44     1
   41    45     1
   41    46     1
   42    44     1
   42    45     1
   42    46     1
   43    50     1
   43    51     1
   44    47     1
   44    48     1
   44    49     1
   45    47     1
   45    48     1
   45    49     1
   46    52     1
   46    53     1
   47    50     1
   47    51     1
   48    50     1
   48    51     1
   49    54     1
   49    55     1
   49    56     1
   50    52     1
   50    53     1
   51    57     1
   51    58     1
   51    59     1
   52    54     1
   52    55     1
   52    56     1
   53    60     1
   53    61     1
   53    62     1
   54    57     1
   54    58     1
   54    59     1
   55    57     1
   55    58     1
   55    59     1
   56    63     1
   56    64     1
   56    65     1
   57    60     1
   57    61     1
   57    62     1
   58    60     1
   58    61     1
   58    62     1
   59    66     1
   59    67     1
   59    68     1
   60    63     1
   60    64     1
   60    65     1
   61    63     1
   61    64     1
   61    65     1
   62    69     1
   62    70     1
   62    71     1
   63    66     1
   63    67     1
   63    68     1
   64    66     1
   64    67     1
   64    68     1
   65    72     1
   65    73     1
   65    74     1
   66    69     1
   66    70     1
   66    71     1
   67    69     1
   67    70     1
   67    71     1
   68    75     1
   68    76     1
   68    77     1
   69    72     1
   69    73     1
   69    74     1
   70    72     1
   70    73     1
   70    74     1
   72    75     1
   72    76     1
   72    77     1
   73    75     1
   73    76     1
   73    77     1
   78    85     1
   78    86     1
   78    87     1
   79    82     1
   79    83     1
   79    84     1
   80    82     1
   80    83     1
   80    84     1
   81    88     1
   81    89     1
   81    90     1
   82    85     1
   82    86     1
   82    87     1
   83    85     1
   83    86     1
   83    87     1
   84    91     1
   84    92     1
   84    93     1
   85    88     1
   85    89     1
   85    90     1
   86    88     1
   86    89     1
   86    90     1
   87    94     1
   87    95     1
   87    96     1
   88    91     1
   88    92     1
   88    93     1
   89    91     1
   89    92     1
   89    93     1
   90    97     1
   90    98     1
   90    99     1
   91    94     1
   91    95     1
   91    96     1
   92    94     1
   92    95     1
   92    96     1
   93   100     1
   93   101     1
   93   102     1
   94    97     1
   94    98     1
   94    99     1
   95    97     1
   95    98     1
   95    99     1
   96   103     1
   96   104     1
   97   100     1
   97   101     1
   97   102     1
   98   100     1
   98   101     1
   98   102     1
   99   105     1
   99   106     1
  100   103     1
  100   104     1
  101   103     1
  101   104     1
  102   107     1
  102   108     1
  102   109     1
  103   105     1
  103   106     1
  104   110     1
  104   111     1
  104   112     1
  105   107     1
  105   108     1
  105   109     1
  106   113     1
  106   114     1
  106   115     1
  107   110     1
  107   111     1
  107   112     1
  108   110     1
  108   111     1
  108   112     1
  109   116     1
  109   117     1
  109   118     1
  110   113     1
  110   114     1
  110   115     1
  111   113     1
  111   114     1
  111   115     1
  112   119     1
  112   120     1
  112   121     1
  113   116     1
  113   117     1
  113   118     1
  114   116     1
  114   117     1
  114   118     1
  115   122     1
  115   123     1
  115   124     1
  116   119     1
  116   120     1
  116   121     1
  117   119     1
  117   120     1
  117   121     1
  118   125     1
  118   126     1
  118   127     1
  119   122     1
  119   123     1
  119   124     1
  120   122     1
  120   123     1
  120   124     1
  121   128     1
  121   129     1
  121   130     1
  122   125     1
  122   126     1
  122   127     1
  123   125     1
  123   126     1
  123   127     1
  125   128     1
  125   129     1
  125   130     1
  126   128     1
  126   129     1
  126   130     1

[ angles ] 
; ai	aj	ak	funct	th0	cth	S0	Kub
    2     1     3     5
    2     1     7     5
    2     1    11     5
    3     1     7     5
    3     1    11     5
    7     1    11     5
    1     3     4     5
    1     3     5     5
    1     3     6     5
    4     3     5     5
    4     3     6     5
    5     3     6     5
    1     7     8     5
    1     7     9     5
    1     7    10     5
    8     7     9     5
    8     7    10     5
    9     7    10     5
    1    11    12     5
    1    11    13     5
    1    11    14     5
   12    11    13     5
   12    11    14     5
   13    11    14     5
   11    14    15     5
   11    14    16     5
   11    14    17     5
   15    14    16     5
   15    14    17     5
   16    14    17     5
   14    17    18     5
   14    17    19     5
   14    17    21     5
   18    17    19     5
   18    17    21     5
   19    17    21     5
   21    20    23     5
   17    21    20     5
   17    21    22     5
   20    21    22     5
   20    23    24     5
   20    23    25     5
   20    23    78     5
   24    23    25     5
   24    23    78     5
   25    23    78     5
   23    25    26     5
   23    25    27     5
   23    25    28     5
   26    25    27     5
   26    25    28     5
   27    25    28     5
   25    28    29     5
   25    28    30     5
   25    28    31     5
   29    28    30     5
   29    28    31     5
   30    28    31     5
   28    31    32     5
   28    31    33     5
   28    31    34     5
   32    31    33     5
   32    31    34     5
   33    31    34     5
   31    34    35     5
   31    34    36     5
   31    34    37     5
   35    34    36     5
   35    34    37     5
   36    34    37     5
   34    37    38     5
   34    37    39     5
   34    37    40     5
   38    37    39     5
   38    37    40     5
   39    37    40     5
   37    40    41     5
   37    40    42     5
   37    40    43     5
   41    40    42     5
   41    40    43     5
   42    40    43     5
   40    43    44     5
   40    43    45     5
   40    43    46     5
   44    43    45     5
   44    43    46     5
   45    43    46     5
   43    46    47     5
   43    46    48     5
   43    46    49     5
   47    46    48     5
   47    46    49     5
   48    46    49     5
   46    49    50     5
   46    49    51     5
   50    49    51     5
   49    51    52     5
   49    51    53     5
   52    51    53     5
   51    53    54     5
   51    53    55     5
   51    53    56     5
   54    53    55     5
   54    53    56     5
   55    53    56     5
   53    56    57     5
   53    56    58     5
   53    56    59     5
   57    56    58     5
   57    56    59     5
   58    56    59     5
   56    59    60     5
   56    59    61     5
   56    59    62     5
   60    59    61     5
   60    59    62     5
   61    59    62     5
   59    62    63     5
   59    62    64     5
   59    62    65     5
   63    62    64     5
   63    62    65     5
   64    62    65     5
   62    65    66     5
   62    65    67     5
   62    65    68     5
   66    65    67     5
   66    65    68     5
   67    65    68     5
   65    68    69     5
   65    68    70     5
   65    68    71     5
   69    68    70     5
   69    68    71     5
   70    68    71     5
   68    71    72     5
   68    71    73     5
   68    71    74     5
   72    71    73     5
   72    71    74     5
   73    71    74     5
   71    74    75     5
   71    74    76     5
   71    74    77     5
   75    74    76     5
   75    74    77     5
   76    74    77     5
   23    78    79     5
   23    78    80     5
   23    78    81     5
   79    78    80     5
   79    78    81     5
   80    78    81     5
   78    81    82     5
   78    81    83     5
   78    81    84     5
   82    81    83     5
   82    81    84     5
   83    81    84     5
   81    84    85     5
   81    84    86     5
   81    84    87     5
   85    84    86     5
   85    84    87     5
   86    84    87     5
   84    87    88     5
   84    87    89     5
   84    87    90     5
   88    87    89     5
   88    87    90     5
   89    87    90     5
   87    90    91     5
   87    90    92     5
   87    90    93     5
   91    90    92     5
   91    90    93     5
   92    90    93     5
   90    93    94     5
   90    93    95     5
   90    93    96     5
   94    93    95     5
   94    93    96     5
   95    93    96     5
   93    96    97     5
   93    96    98     5
   93    96    99     5
   97    96    98     5
   97    96    99     5
   98    96    99     5
   96    99   100     5
   96    99   101     5
   96    99   102     5
  100    99   101     5
  100    99   102     5
  101    99   102     5
   99   102   103     5
   99   102   104     5
  103   102   104     5
  102   104   105     5
  102   104   106     5
  105   104   106     5
  104   106   107     5
  104   106   108     5
  104   106   109     5
  107   106   108     5
  107   106   109     5
  108   106   109     5
  106   109   110     5
  106   109   111     5
  106   109   112     5
  110   109   111     5
  110   109   112     5
  111   109   112     5
  109   112   113     5
  109   112   114     5
  109   112   115     5
  113   112   114     5
  113   112   115     5
  114   112   115     5
  112   115   116     5
  112   115   117     5
  112   115   118     5
  116   115   117     5
  116   115   118     5
  117   115   118     5
  115   118   119     5
  115   118   120     5
  115   118   121     5
  119   118   120     5
  119   118   121     5
  120   118   121     5
  118   121   122     5
  118   121   123     5
  118   121   124     5
  122   121   123     5
  122   121   124     5
  123   121   124     5
  121   124   125     5
  121   124   126     5
  121   124   127     5
  125   124   126     5
  125   124   127     5
  126   124   127     5
  124   127   128     5
  124   127   129     5
  124   127   130     5
  128   127   129     5
  128   127   130     5
  129   127   130     5

[ dihedrals ]
; ai	aj	ak	al	funct	phi0	cp	mult
    2     1     3     4     9
    2     1     3     5     9
    2     1     3     6     9
    2     1     7     8     9
    2     1     7     9     9
    2     1     7    10     9
    3     1     7     8     9
    3     1     7     9     9
    3     1     7    10     9
    2     1    11    12     9
    2     1    11    13     9
    2     1    11    14     9
    3     1    11    12     9
    3     1    11    13     9
    3     1    11    14     9
    7     1    11    12     9
    7     1    11    13     9
    7     1    11    14     9
    4     3     1     7     9
    4     3     1    11     9
    5     3     1     7     9
    5     3     1    11     9
    6     3     1     7     9
    6     3     1    11     9
    8     7     1    11     9
    9     7     1    11     9
   10     7     1    11     9
    1    11    14    15     9
    1    11    14    16     9
    1    11    14    17     9
   12    11    14    15     9
   12    11    14    16     9
   12    11    14    17     9
   13    11    14    15     9
   13    11    14    16     9
   13    11    14    17     9
   11    14    17    18     9
   11    14    17    19     9
   11    14    17    21     9
   15    14    17    18     9
   15    14    17    19     9
   15    14    17    21     9
   16    14    17    18     9
   16    14    17    19     9
   16    14    17    21     9
   14    17    21    20     9
   14    17    21    22     9
   18    17    21    20     9
   18    17    21    22     9
   19    17    21    20     9
   19    17    21    22     9
   21    20    23    24     9
   21    20    23    25     9
   21    20    23    78     9
   17    21    20    23     9
   22    21    20    23     9
   20    23    25    26     9
   20    23    25    27     9
   20    23    25    28     9
   24    23    25    26     9
   24    23    25    27     9
   24    23    25    28     9
   20    23    78    79     9
   20    23    78    80     9
   20    23    78    81     9
   24    23    78    79     9
   24    23    78    80     9
   24    23    78    81     9
   25    23    78    79     9
   25    23    78    80     9
   25    23    78    81     9
   26    25    23    78     9
   27    25    23    78     9
   28    25    23    78     9
   23    25    28    29     9
   23    25    28    30     9
   23    25    28    31     9
   26    25    28    29     9
   26    25    28    30     9
   26    25    28    31     9
   27    25    28    29     9
   27    25    28    30     9
   27    25    28    31     9
   25    28    31    32     9
   25    28    31    33     9
   25    28    31    34     9
   29    28    31    32     9
   29    28    31    33     9
   29    28    31    34     9
   30    28    31    32     9
   30    28    31    33     9
   30    28    31    34     9
   28    31    34    35     9
   28    31    34    36     9
   28    31    34    37     9
   32    31    34    35     9
   32    31    34    36     9
   32    31    34    37     9
   33    31    34    35     9
   33    31    34    36     9
   33    31    34    37     9
   31    34    37    38     9
   31    34    37    39     9
   31    34    37    40     9
   35    34    37    38     9
   35    34    37    39     9
   35    34    37    40     9
   36    34    37    38     9
   36    34    37    39     9
   36    34    37    40     9
   34    37    40    41     9
   34    37    40    42     9
   34    37    40    43     9
   38    37    40    41     9
   38    37    40    42     9
   38    37    40    43     9
   39    37    40    41     9
   39    37    40    42     9
   39    37    40    43     9
   37    40    43    44     9
   37    40    43    45     9
   37    40    43    46     9
   41    40    43    44     9
   41    40    43    45     9
   41    40    43    46     9
   42    40    43    44     9
   42    40    43    45     9
   42    40    43    46     9
   40    43    46    47     9
   40    43    46    48     9
   40    43    46    49     9
   44    43    46    47     9
   44    43    46    48     9
   44    43    46    49     9
   45    43    46    47     9
   45    43    46    48     9
   45    43    46    49     9
   43    46    49    50     9
   43    46    49    51     9
   47    46    49    50     9
   47    46    49    51     9
   48    46    49    50     9
   48    46    49    51     9
   46    49    51    52     9
   46    49    51    53     9
   50    49    51    52     9
   50    49    51    53     9
   49    51    53    54     9
   49    51    53    55     9
   49    51    53    56     9
   52    51    53    54     9
   52    51    53    55     9
   52    51    53    56     9
   51    53    56    57     9
   51    53    56    58     9
   51    53    56    59     9
   54    53    56    57     9
   54    53    56    58     9
   54    53    56    59     9
   55    53    56    57     9
   55    53    56    58     9
   55    53    56    59     9
   53    56    59    60     9
   53    56    59    61     9
   53    56    59    62     9
   57    56    59    60     9
   57    56    59    61     9
   57    56    59    62     9
   58    56    59    60     9
   58    56    59    61     9
   58    56    59    62     9
   56    59    62    63     9
   56    59    62    64     9
   56    59    62    65     9
   60    59    62    63     9
   60    59    62    64     9
   60    59    62    65     9
   61    59    62    63     9
   61    59    62    64     9
   61    59    62    65     9
   59    62    65    66     9
   59    62    65    67     9
   59    62    65    68     9
   63    62    65    66     9
   63    62    65    67     9
   63    62    65    68     9
   64    62    65    66     9
   64    62    65    67     9
   64    62    65    68     9
   62    65    68    69     9
   62    65    68    70     9
   62    65    68    71     9
   66    65    68    69     9
   66    65    68    70     9
   66    65    68    71     9
   67    65    68    69     9
   67    65    68    70     9
   67    65    68    71     9
   65    68    71    72     9
   65    68    71    73     9
   65    68    71    74     9
   69    68    71    72     9
   69    68    71    73     9
   69    68    71    74     9
   70    68    71    72     9
   70    68    71    73     9
   70    68    71    74     9
   68    71    74    75     9
   68    71    74    76     9
   68    71    74    77     9
   72    71    74    75     9
   72    71    74    76     9
   72    71    74    77     9
   73    71    74    75     9
   73    71    74    76     9
   73    71    74    77     9
   23    78    81    82     9
   23    78    81    83     9
   23    78    81    84     9
   79    78    81    82     9
   79    78    81    83     9
   79    78    81    84     9
   80    78    81    82     9
   80    78    81    83     9
   80    78    81    84     9
   78    81    84    85     9
   78    81    84    86     9
   78    81    84    87     9
   82    81    84    85     9
   82    81    84    86     9
   82    81    84    87     9
   83    81    84    85     9
   83    81    84    86     9
   83    81    84    87     9
   81    84    87    88     9
   81    84    87    89     9
   81    84    87    90     9
   85    84    87    88     9
   85    84    87    89     9
   85    84    87    90     9
   86    84    87    88     9
   86    84    87    89     9
   86    84    87    90     9
   84    87    90    91     9
   84    87    90    92     9
   84    87    90    93     9
   88    87    90    91     9
   88    87    90    92     9
   88    87    90    93     9
   89    87    90    91     9
   89    87    90    92     9
   89    87    90    93     9
   87    90    93    94     9
   87    90    93    95     9
   87    90    93    96     9
   91    90    93    94     9
   91    90    93    95     9
   91    90    93    96     9
   92    90    93    94     9
   92    90    93    95     9
   92    90    93    96     9
   90    93    96    97     9
   90    93    96    98     9
   90    93    96    99     9
   94    93    96    97     9
   94    93    96    98     9
   94    93    96    99     9
   95    93    96    97     9
   95    93    96    98     9
   95    93    96    99     9
   93    96    99   100     9
   93    96    99   101     9
   93    96    99   102     9
   97    96    99   100     9
   97    96    99   101     9
   97    96    99   102     9
   98    96    99   100     9
   98    96    99   101     9
   98    96    99   102     9
   96    99   102   103     9
   96    99   102   104     9
  100    99   102   103     9
  100    99   102   104     9
  101    99   102   103     9
  101    99   102   104     9
   99   102   104   105     9
   99   102   104   106     9
  103   102   104   105     9
  103   102   104   106     9
  102   104   106   107     9
  102   104   106   108     9
  102   104   106   109     9
  105   104   106   107     9
  105   104   106   108     9
  105   104   106   109     9
  104   106   109   110     9
  104   106   109   111     9
  104   106   109   112     9
  107   106   109   110     9
  107   106   109   111     9
  107   106   109   112     9
  108   106   109   110     9
  108   106   109   111     9
  108   106   109   112     9
  106   109   112   113     9
  106   109   112   114     9
  106   109   112   115     9
  110   109   112   113     9
  110   109   112   114     9
  110   109   112   115     9
  111   109   112   113     9
  111   109   112   114     9
  111   109   112   115     9
  109   112   115   116     9
  109   112   115   117     9
  109   112   115   118     9
  113   112   115   116     9
  113   112   115   117     9
  113   112   115   118     9
  114   112   115   116     9
  114   112   115   117     9
  114   112   115   118     9
  112   115   118   119     9
  112   115   118   120     9
  112   115   118   121     9
  116   115   118   119     9
  116   115   118   120     9
  116   115   118   121     9
  117   115   118   119     9
  117   115   118   120     9
  117   115   118   121     9
  115   118   121   122     9
  115   118   121   123     9
  115   118   121   124     9
  119   118   121   122     9
  119   118   121   123     9
  119   118   121   124     9
  120   118   121   122     9
  120   118   121   123     9
  120   118   121   124     9
  118   121   124   125     9
  118   121   124   126     9
  118   121   124   127     9
  122   121   124   125     9
  122   121   124   126     9
  122   121   124   127     9
  123   121   124   125     9
  123   121   124   126     9
  123   121   124   127     9
  121   124   127   128     9
  121   124   127   129     9
  121   124   127   130     9
  125   124   127   128     9
  125   124   127   129     9
  125   124   127   130     9
  126   124   127   128     9
  126   124   127   129     9
  126   124   127   130     9

[ dihedrals ]
; ai	aj	ak	al	funct	q0	cq
   21    20    17    22     2

#ifdef POSRES
[ position_restraints ]
    1     1     0.0             0.0            POSRES_FC_LIPID
#endif

#ifdef DIHRES
[ dihedral_restraints ]
   20    25    23    78     1   -120.0      2.5       DIHRES_FC
   46    49    51    53     1      0.0      0.0       DIHRES_FC
   99   102   104   106     1      0.0      0.0       DIHRES_FC
#endif
