;;
;; Generated by CHARMM-GUI FF-Converter
;;
;; Correspondance:
;; jul316@lehigh.edu or wonpil@lehigh.edu
;;
;; GROMACS topology file for DOPCE
;;


[ moleculetype ]
; name	nrexcl
DOPCE	     3

[ atoms ]
; nr	type	resnr	residu	atom	cgnr	charge	mass
     1        NTL      4    DOPCE      N      1    -0.600000    14.0070   ; qtot -0.600
     2       CTL2      4    DOPCE    C12      2    -0.100000    12.0110   ; qtot -0.700
     3         HL      4    DOPCE   H12A      3     0.250000     1.0080   ; qtot -0.450
     4         HL      4    DOPCE   H12B      4     0.250000     1.0080   ; qtot -0.200
     5       CTL5      4    DOPCE    C13      5    -0.350000    12.0110   ; qtot -0.550
     6         HL      4    DOPCE   H13A      6     0.250000     1.0080   ; qtot -0.300
     7         HL      4    DOPCE   H13B      7     0.250000     1.0080   ; qtot -0.050
     8         HL      4    DOPCE   H13C      8     0.250000     1.0080   ; qtot  0.200
     9       CTL5      4    DOPCE    C14      9    -0.350000    12.0110   ; qtot -0.150
    10         HL      4    DOPCE   H14A     10     0.250000     1.0080   ; qtot  0.100
    11         HL      4    DOPCE   H14B     11     0.250000     1.0080   ; qtot  0.350
    12         HL      4    DOPCE   H14C     12     0.250000     1.0080   ; qtot  0.600
    13       CTL5      4    DOPCE    C15     13    -0.350000    12.0110   ; qtot  0.250
    14         HL      4    DOPCE   H15A     14     0.250000     1.0080   ; qtot  0.500
    15         HL      4    DOPCE   H15B     15     0.250000     1.0080   ; qtot  0.750
    16         HL      4    DOPCE   H15C     16     0.250000     1.0080   ; qtot  1.000
    17       CTL2      4    DOPCE    C11     17    -0.080000    12.0110   ; qtot  0.920
    18       HAL2      4    DOPCE   H11A     18     0.090000     1.0080   ; qtot  1.010
    19       HAL2      4    DOPCE   H11B     19     0.090000     1.0080   ; qtot  1.100
    20         PL      4    DOPCE      P     20     1.500000    30.9740   ; qtot  2.600
    21        O2L      4    DOPCE    O13     21    -0.780000    15.9994   ; qtot  1.820
    22        O2L      4    DOPCE    O14     22    -0.780000    15.9994   ; qtot  1.040
    23       OSLP      4    DOPCE    O12     23    -0.570000    15.9994   ; qtot  0.470
    24       OSLP      4    DOPCE    O11     24    -0.570000    15.9994   ; qtot -0.100
    25       CTL2      4    DOPCE     C1     25    -0.080000    12.0110   ; qtot -0.180
    26       HAL2      4    DOPCE     HA     26     0.090000     1.0080   ; qtot -0.090
    27       HAL2      4    DOPCE     HB     27     0.090000     1.0080   ; qtot  0.000
    28       CTL1      4    DOPCE     C2     28     0.130000    12.0110   ; qtot  0.130
    29       HAL1      4    DOPCE     HS     29     0.010000     1.0080   ; qtot  0.140
    30      OG301      4    DOPCE    O21     30    -0.560000    15.9994   ; qtot -0.420
    31       CTL2      4    DOPCE    C21     31     0.400000    12.0110   ; qtot -0.020
    32       HAL2      4    DOPCE    H1R     32     0.010000     1.0080   ; qtot -0.010
    33       HAL2      4    DOPCE    H1S     33     0.010000     1.0080   ; qtot  0.000
    34       CTL2      4    DOPCE    C22     34    -0.180000    12.0110   ; qtot -0.180
    35       HAL2      4    DOPCE    H2R     35     0.090000     1.0080   ; qtot -0.090
    36       HAL2      4    DOPCE    H2S     36     0.090000     1.0080   ; qtot  0.000
    37       CTL2      4    DOPCE     C3     37     0.080000    12.0110   ; qtot  0.080
    38       HAL2      4    DOPCE     HX     38     0.020000     1.0080   ; qtot  0.100
    39       HAL2      4    DOPCE     HY     39     0.020000     1.0080   ; qtot  0.120
    40      OG301      4    DOPCE    O31     40    -0.560000    15.9994   ; qtot -0.440
    41       CTL2      4    DOPCE    C31     41     0.400000    12.0110   ; qtot -0.040
    42       HAL2      4    DOPCE    H1X     42     0.020000     1.0080   ; qtot -0.020
    43       HAL2      4    DOPCE    H1Y     43     0.020000     1.0080   ; qtot  0.000
    44       CTL2      4    DOPCE    C32     44    -0.180000    12.0110   ; qtot -0.180
    45       HAL2      4    DOPCE    H2X     45     0.090000     1.0080   ; qtot -0.090
    46       HAL2      4    DOPCE    H2Y     46     0.090000     1.0080   ; qtot  0.000
    47       CTL2      4    DOPCE    C23     47    -0.180000    12.0110   ; qtot -0.180
    48       HAL2      4    DOPCE    H3R     48     0.090000     1.0080   ; qtot -0.090
    49       HAL2      4    DOPCE    H3S     49     0.090000     1.0080   ; qtot  0.000
    50       CTL2      4    DOPCE    C24     50    -0.180000    12.0110   ; qtot -0.180
    51       HAL2      4    DOPCE    H4R     51     0.090000     1.0080   ; qtot -0.090
    52       HAL2      4    DOPCE    H4S     52     0.090000     1.0080   ; qtot  0.000
    53       CTL2      4    DOPCE    C25     53    -0.180000    12.0110   ; qtot -0.180
    54       HAL2      4    DOPCE    H5R     54     0.090000     1.0080   ; qtot -0.090
    55       HAL2      4    DOPCE    H5S     55     0.090000     1.0080   ; qtot  0.000
    56       CTL2      4    DOPCE    C26     56    -0.180000    12.0110   ; qtot -0.180
    57       HAL2      4    DOPCE    H6R     57     0.090000     1.0080   ; qtot -0.090
    58       HAL2      4    DOPCE    H6S     58     0.090000     1.0080   ; qtot  0.000
    59       CTL2      4    DOPCE    C27     59    -0.180000    12.0110   ; qtot -0.180
    60       HAL2      4    DOPCE    H7R     60     0.090000     1.0080   ; qtot -0.090
    61       HAL2      4    DOPCE    H7S     61     0.090000     1.0080   ; qtot  0.000
    62       CTL2      4    DOPCE    C28     62    -0.180000    12.0110   ; qtot -0.180
    63       HAL2      4    DOPCE    H8R     63     0.090000     1.0080   ; qtot -0.090
    64       HAL2      4    DOPCE    H8S     64     0.090000     1.0080   ; qtot  0.000
    65       CEL1      4    DOPCE    C29     65    -0.150000    12.0110   ; qtot -0.150
    66       HEL1      4    DOPCE    H9R     66     0.150000     1.0080   ; qtot  0.000
    67       CEL1      4    DOPCE   C210     67    -0.150000    12.0110   ; qtot -0.150
    68       HEL1      4    DOPCE   H10R     68     0.150000     1.0080   ; qtot  0.000
    69       CTL2      4    DOPCE   C211     69    -0.180000    12.0110   ; qtot -0.180
    70       HAL2      4    DOPCE   H11R     70     0.090000     1.0080   ; qtot -0.090
    71       HAL2      4    DOPCE   H11S     71     0.090000     1.0080   ; qtot  0.000
    72       CTL2      4    DOPCE   C212     72    -0.180000    12.0110   ; qtot -0.180
    73       HAL2      4    DOPCE   H12R     73     0.090000     1.0080   ; qtot -0.090
    74       HAL2      4    DOPCE   H12S     74     0.090000     1.0080   ; qtot  0.000
    75       CTL2      4    DOPCE   C213     75    -0.180000    12.0110   ; qtot -0.180
    76       HAL2      4    DOPCE   H13R     76     0.090000     1.0080   ; qtot -0.090
    77       HAL2      4    DOPCE   H13S     77     0.090000     1.0080   ; qtot  0.000
    78       CTL2      4    DOPCE   C214     78    -0.180000    12.0110   ; qtot -0.180
    79       HAL2      4    DOPCE   H14R     79     0.090000     1.0080   ; qtot -0.090
    80       HAL2      4    DOPCE   H14S     80     0.090000     1.0080   ; qtot  0.000
    81       CTL2      4    DOPCE   C215     81    -0.180000    12.0110   ; qtot -0.180
    82       HAL2      4    DOPCE   H15R     82     0.090000     1.0080   ; qtot -0.090
    83       HAL2      4    DOPCE   H15S     83     0.090000     1.0080   ; qtot  0.000
    84       CTL2      4    DOPCE   C216     84    -0.180000    12.0110   ; qtot -0.180
    85       HAL2      4    DOPCE   H16R     85     0.090000     1.0080   ; qtot -0.090
    86       HAL2      4    DOPCE   H16S     86     0.090000     1.0080   ; qtot  0.000
    87       CTL2      4    DOPCE   C217     87    -0.180000    12.0110   ; qtot -0.180
    88       HAL2      4    DOPCE   H17R     88     0.090000     1.0080   ; qtot -0.090
    89       HAL2      4    DOPCE   H17S     89     0.090000     1.0080   ; qtot  0.000
    90       CTL3      4    DOPCE   C218     90    -0.270000    12.0110   ; qtot -0.270
    91       HAL3      4    DOPCE   H18R     91     0.090000     1.0080   ; qtot -0.180
    92       HAL3      4    DOPCE   H18S     92     0.090000     1.0080   ; qtot -0.090
    93       HAL3      4    DOPCE   H18T     93     0.090000     1.0080   ; qtot  0.000
    94       CTL2      4    DOPCE    C33     94    -0.180000    12.0110   ; qtot -0.180
    95       HAL2      4    DOPCE    H3X     95     0.090000     1.0080   ; qtot -0.090
    96       HAL2      4    DOPCE    H3Y     96     0.090000     1.0080   ; qtot  0.000
    97       CTL2      4    DOPCE    C34     97    -0.180000    12.0110   ; qtot -0.180
    98       HAL2      4    DOPCE    H4X     98     0.090000     1.0080   ; qtot -0.090
    99       HAL2      4    DOPCE    H4Y     99     0.090000     1.0080   ; qtot  0.000
   100       CTL2      4    DOPCE    C35    100    -0.180000    12.0110   ; qtot -0.180
   101       HAL2      4    DOPCE    H5X    101     0.090000     1.0080   ; qtot -0.090
   102       HAL2      4    DOPCE    H5Y    102     0.090000     1.0080   ; qtot  0.000
   103       CTL2      4    DOPCE    C36    103    -0.180000    12.0110   ; qtot -0.180
   104       HAL2      4    DOPCE    H6X    104     0.090000     1.0080   ; qtot -0.090
   105       HAL2      4    DOPCE    H6Y    105     0.090000     1.0080   ; qtot  0.000
   106       CTL2      4    DOPCE    C37    106    -0.180000    12.0110   ; qtot -0.180
   107       HAL2      4    DOPCE    H7X    107     0.090000     1.0080   ; qtot -0.090
   108       HAL2      4    DOPCE    H7Y    108     0.090000     1.0080   ; qtot  0.000
   109       CTL2      4    DOPCE    C38    109    -0.180000    12.0110   ; qtot -0.180
   110       HAL2      4    DOPCE    H8X    110     0.090000     1.0080   ; qtot -0.090
   111       HAL2      4    DOPCE    H8Y    111     0.090000     1.0080   ; qtot  0.000
   112       CEL1      4    DOPCE    C39    112    -0.150000    12.0110   ; qtot -0.150
   113       HEL1      4    DOPCE    H9X    113     0.150000     1.0080   ; qtot  0.000
   114       CEL1      4    DOPCE   C310    114    -0.150000    12.0110   ; qtot -0.150
   115       HEL1      4    DOPCE   H10X    115     0.150000     1.0080   ; qtot  0.000
   116       CTL2      4    DOPCE   C311    116    -0.180000    12.0110   ; qtot -0.180
   117       HAL2      4    DOPCE   H11X    117     0.090000     1.0080   ; qtot -0.090
   118       HAL2      4    DOPCE   H11Y    118     0.090000     1.0080   ; qtot  0.000
   119       CTL2      4    DOPCE   C312    119    -0.180000    12.0110   ; qtot -0.180
   120       HAL2      4    DOPCE   H12X    120     0.090000     1.0080   ; qtot -0.090
   121       HAL2      4    DOPCE   H12Y    121     0.090000     1.0080   ; qtot  0.000
   122       CTL2      4    DOPCE   C313    122    -0.180000    12.0110   ; qtot -0.180
   123       HAL2      4    DOPCE   H13X    123     0.090000     1.0080   ; qtot -0.090
   124       HAL2      4    DOPCE   H13Y    124     0.090000     1.0080   ; qtot  0.000
   125       CTL2      4    DOPCE   C314    125    -0.180000    12.0110   ; qtot -0.180
   126       HAL2      4    DOPCE   H14X    126     0.090000     1.0080   ; qtot -0.090
   127       HAL2      4    DOPCE   H14Y    127     0.090000     1.0080   ; qtot  0.000
   128       CTL2      4    DOPCE   C315    128    -0.180000    12.0110   ; qtot -0.180
   129       HAL2      4    DOPCE   H15X    129     0.090000     1.0080   ; qtot -0.090
   130       HAL2      4    DOPCE   H15Y    130     0.090000     1.0080   ; qtot  0.000
   131       CTL2      4    DOPCE   C316    131    -0.180000    12.0110   ; qtot -0.180
   132       HAL2      4    DOPCE   H16X    132     0.090000     1.0080   ; qtot -0.090
   133       HAL2      4    DOPCE   H16Y    133     0.090000     1.0080   ; qtot  0.000
   134       CTL2      4    DOPCE   C317    134    -0.180000    12.0110   ; qtot -0.180
   135       HAL2      4    DOPCE   H17X    135     0.090000     1.0080   ; qtot -0.090
   136       HAL2      4    DOPCE   H17Y    136     0.090000     1.0080   ; qtot  0.000
   137       CTL3      4    DOPCE   C318    137    -0.270000    12.0110   ; qtot -0.270
   138       HAL3      4    DOPCE   H18X    138     0.090000     1.0080   ; qtot -0.180
   139       HAL3      4    DOPCE   H18Y    139     0.090000     1.0080   ; qtot -0.090
   140       HAL3      4    DOPCE   H18Z    140     0.090000     1.0080   ; qtot  0.000

[ bonds ]
; ai	aj	funct	b0	Kb
    1     2     1
    1     5     1
    1     9     1
    1    13     1
    2     3     1
    2     4     1
    2    17     1
    5     6     1
    5     7     1
    5     8     1
    9    10     1
    9    11     1
    9    12     1
   13    14     1
   13    15     1
   13    16     1
   17    18     1
   17    19     1
   17    23     1
   20    21     1
   20    22     1
   23    20     1
   20    24     1
   24    25     1
   25    26     1
   25    27     1
   25    28     1
   28    29     1
   28    30     1
   28    37     1
   30    31     1
   31    32     1
   31    33     1
   31    34     1
   34    35     1
   34    36     1
   34    47     1
   37    38     1
   37    39     1
   37    40     1
   40    41     1
   41    42     1
   41    43     1
   41    44     1
   44    45     1
   44    46     1
   44    94     1
   47    48     1
   47    49     1
   47    50     1
   50    51     1
   50    52     1
   50    53     1
   53    54     1
   53    55     1
   53    56     1
   56    57     1
   56    58     1
   56    59     1
   59    60     1
   59    61     1
   59    62     1
   62    63     1
   62    64     1
   62    65     1
   65    66     1
   65    67     1
   67    68     1
   67    69     1
   69    70     1
   69    71     1
   69    72     1
   72    73     1
   72    74     1
   72    75     1
   75    76     1
   75    77     1
   75    78     1
   78    79     1
   78    80     1
   78    81     1
   81    82     1
   81    83     1
   81    84     1
   84    85     1
   84    86     1
   84    87     1
   87    88     1
   87    89     1
   87    90     1
   90    91     1
   90    92     1
   90    93     1
   94    95     1
   94    96     1
   94    97     1
   97    98     1
   97    99     1
   97   100     1
  100   101     1
  100   102     1
  100   103     1
  103   104     1
  103   105     1
  103   106     1
  106   107     1
  106   108     1
  106   109     1
  109   110     1
  109   111     1
  109   112     1
  112   113     1
  112   114     1
  114   115     1
  114   116     1
  116   117     1
  116   118     1
  116   119     1
  119   120     1
  119   121     1
  119   122     1
  122   123     1
  122   124     1
  122   125     1
  125   126     1
  125   127     1
  125   128     1
  128   129     1
  128   130     1
  128   131     1
  131   132     1
  131   133     1
  131   134     1
  134   135     1
  134   136     1
  134   137     1
  137   138     1
  137   139     1
  137   140     1

[ pairs ]
; ai	aj	funct	c6	c12 or
; ai	aj	funct	fudgeQQ	q1	q2	c6	c12
    1    18     1
    1    19     1
    1    23     1
    2     6     1
    2     7     1
    2     8     1
    2    10     1
    2    11     1
    2    12     1
    2    14     1
    2    15     1
    2    16     1
    2    20     1
    3     5     1
    3     9     1
    3    13     1
    3    18     1
    3    19     1
    3    23     1
    4     5     1
    4     9     1
    4    13     1
    4    18     1
    4    19     1
    4    23     1
    5    10     1
    5    11     1
    5    12     1
    5    14     1
    5    15     1
    5    16     1
    5    17     1
    6     9     1
    6    13     1
    7     9     1
    7    13     1
    8     9     1
    8    13     1
    9    14     1
    9    15     1
    9    16     1
    9    17     1
   10    13     1
   11    13     1
   12    13     1
   13    17     1
   17    21     1
   17    22     1
   17    24     1
   18    20     1
   19    20     1
   20    26     1
   20    27     1
   20    28     1
   21    25     1
   22    25     1
   23    25     1
   24    29     1
   24    30     1
   24    37     1
   25    31     1
   25    38     1
   25    39     1
   25    40     1
   26    29     1
   26    30     1
   26    37     1
   27    29     1
   27    30     1
   27    37     1
   28    32     1
   28    33     1
   28    34     1
   28    41     1
   29    31     1
   29    38     1
   29    39     1
   29    40     1
   30    35     1
   30    36     1
   30    38     1
   30    39     1
   30    40     1
   30    47     1
   31    37     1
   31    48     1
   31    49     1
   31    50     1
   32    35     1
   32    36     1
   32    47     1
   33    35     1
   33    36     1
   33    47     1
   34    51     1
   34    52     1
   34    53     1
   35    48     1
   35    49     1
   35    50     1
   36    48     1
   36    49     1
   36    50     1
   37    42     1
   37    43     1
   37    44     1
   38    41     1
   39    41     1
   40    45     1
   40    46     1
   40    94     1
   41    95     1
   41    96     1
   41    97     1
   42    45     1
   42    46     1
   42    94     1
   43    45     1
   43    46     1
   43    94     1
   44    98     1
   44    99     1
   44   100     1
   45    95     1
   45    96     1
   45    97     1
   46    95     1
   46    96     1
   46    97     1
   47    54     1
   47    55     1
   47    56     1
   48    51     1
   48    52     1
   48    53     1
   49    51     1
   49    52     1
   49    53     1
   50    57     1
   50    58     1
   50    59     1
   51    54     1
   51    55     1
   51    56     1
   52    54     1
   52    55     1
   52    56     1
   53    60     1
   53    61     1
   53    62     1
   54    57     1
   54    58     1
   54    59     1
   55    57     1
   55    58     1
   55    59     1
   56    63     1
   56    64     1
   56    65     1
   57    60     1
   57    61     1
   57    62     1
   58    60     1
   58    61     1
   58    62     1
   59    66     1
   59    67     1
   60    63     1
   60    64     1
   60    65     1
   61    63     1
   61    64     1
   61    65     1
   62    68     1
   62    69     1
   63    66     1
   63    67     1
   64    66     1
   64    67     1
   65    70     1
   65    71     1
   65    72     1
   66    68     1
   66    69     1
   67    73     1
   67    74     1
   67    75     1
   68    70     1
   68    71     1
   68    72     1
   69    76     1
   69    77     1
   69    78     1
   70    73     1
   70    74     1
   70    75     1
   71    73     1
   71    74     1
   71    75     1
   72    79     1
   72    80     1
   72    81     1
   73    76     1
   73    77     1
   73    78     1
   74    76     1
   74    77     1
   74    78     1
   75    82     1
   75    83     1
   75    84     1
   76    79     1
   76    80     1
   76    81     1
   77    79     1
   77    80     1
   77    81     1
   78    85     1
   78    86     1
   78    87     1
   79    82     1
   79    83     1
   79    84     1
   80    82     1
   80    83     1
   80    84     1
   81    88     1
   81    89     1
   81    90     1
   82    85     1
   82    86     1
   82    87     1
   83    85     1
   83    86     1
   83    87     1
   84    91     1
   84    92     1
   84    93     1
   85    88     1
   85    89     1
   85    90     1
   86    88     1
   86    89     1
   86    90     1
   88    91     1
   88    92     1
   88    93     1
   89    91     1
   89    92     1
   89    93     1
   94   101     1
   94   102     1
   94   103     1
   95    98     1
   95    99     1
   95   100     1
   96    98     1
   96    99     1
   96   100     1
   97   104     1
   97   105     1
   97   106     1
   98   101     1
   98   102     1
   98   103     1
   99   101     1
   99   102     1
   99   103     1
  100   107     1
  100   108     1
  100   109     1
  101   104     1
  101   105     1
  101   106     1
  102   104     1
  102   105     1
  102   106     1
  103   110     1
  103   111     1
  103   112     1
  104   107     1
  104   108     1
  104   109     1
  105   107     1
  105   108     1
  105   109     1
  106   113     1
  106   114     1
  107   110     1
  107   111     1
  107   112     1
  108   110     1
  108   111     1
  108   112     1
  109   115     1
  109   116     1
  110   113     1
  110   114     1
  111   113     1
  111   114     1
  112   117     1
  112   118     1
  112   119     1
  113   115     1
  113   116     1
  114   120     1
  114   121     1
  114   122     1
  115   117     1
  115   118     1
  115   119     1
  116   123     1
  116   124     1
  116   125     1
  117   120     1
  117   121     1
  117   122     1
  118   120     1
  118   121     1
  118   122     1
  119   126     1
  119   127     1
  119   128     1
  120   123     1
  120   124     1
  120   125     1
  121   123     1
  121   124     1
  121   125     1
  122   129     1
  122   130     1
  122   131     1
  123   126     1
  123   127     1
  123   128     1
  124   126     1
  124   127     1
  124   128     1
  125   132     1
  125   133     1
  125   134     1
  126   129     1
  126   130     1
  126   131     1
  127   129     1
  127   130     1
  127   131     1
  128   135     1
  128   136     1
  128   137     1
  129   132     1
  129   133     1
  129   134     1
  130   132     1
  130   133     1
  130   134     1
  131   138     1
  131   139     1
  131   140     1
  132   135     1
  132   136     1
  132   137     1
  133   135     1
  133   136     1
  133   137     1
  135   138     1
  135   139     1
  135   140     1
  136   138     1
  136   139     1
  136   140     1

[ angles ] 
; ai	aj	ak	funct	th0	cth	S0	Kub
    2     1     5     5
    2     1     9     5
    2     1    13     5
    5     1     9     5
    5     1    13     5
    9     1    13     5
    1     2     3     5
    1     2     4     5
    1     2    17     5
    3     2     4     5
    3     2    17     5
    4     2    17     5
    1     5     6     5
    1     5     7     5
    1     5     8     5
    6     5     7     5
    6     5     8     5
    7     5     8     5
    1     9    10     5
    1     9    11     5
    1     9    12     5
   10     9    11     5
   10     9    12     5
   11     9    12     5
    1    13    14     5
    1    13    15     5
    1    13    16     5
   14    13    15     5
   14    13    16     5
   15    13    16     5
    2    17    18     5
    2    17    19     5
    2    17    23     5
   18    17    19     5
   18    17    23     5
   19    17    23     5
   21    20    22     5
   21    20    23     5
   21    20    24     5
   22    20    23     5
   22    20    24     5
   23    20    24     5
   17    23    20     5
   20    24    25     5
   24    25    26     5
   24    25    27     5
   24    25    28     5
   26    25    27     5
   26    25    28     5
   27    25    28     5
   25    28    29     5
   25    28    30     5
   25    28    37     5
   29    28    30     5
   29    28    37     5
   30    28    37     5
   28    30    31     5
   30    31    32     5
   30    31    33     5
   30    31    34     5
   32    31    33     5
   32    31    34     5
   33    31    34     5
   31    34    35     5
   31    34    36     5
   31    34    47     5
   35    34    36     5
   35    34    47     5
   36    34    47     5
   28    37    38     5
   28    37    39     5
   28    37    40     5
   38    37    39     5
   38    37    40     5
   39    37    40     5
   37    40    41     5
   40    41    42     5
   40    41    43     5
   40    41    44     5
   42    41    43     5
   42    41    44     5
   43    41    44     5
   41    44    45     5
   41    44    46     5
   41    44    94     5
   45    44    46     5
   45    44    94     5
   46    44    94     5
   34    47    48     5
   34    47    49     5
   34    47    50     5
   48    47    49     5
   48    47    50     5
   49    47    50     5
   47    50    51     5
   47    50    52     5
   47    50    53     5
   51    50    52     5
   51    50    53     5
   52    50    53     5
   50    53    54     5
   50    53    55     5
   50    53    56     5
   54    53    55     5
   54    53    56     5
   55    53    56     5
   53    56    57     5
   53    56    58     5
   53    56    59     5
   57    56    58     5
   57    56    59     5
   58    56    59     5
   56    59    60     5
   56    59    61     5
   56    59    62     5
   60    59    61     5
   60    59    62     5
   61    59    62     5
   59    62    63     5
   59    62    64     5
   59    62    65     5
   63    62    64     5
   63    62    65     5
   64    62    65     5
   62    65    66     5
   62    65    67     5
   66    65    67     5
   65    67    68     5
   65    67    69     5
   68    67    69     5
   67    69    70     5
   67    69    71     5
   67    69    72     5
   70    69    71     5
   70    69    72     5
   71    69    72     5
   69    72    73     5
   69    72    74     5
   69    72    75     5
   73    72    74     5
   73    72    75     5
   74    72    75     5
   72    75    76     5
   72    75    77     5
   72    75    78     5
   76    75    77     5
   76    75    78     5
   77    75    78     5
   75    78    79     5
   75    78    80     5
   75    78    81     5
   79    78    80     5
   79    78    81     5
   80    78    81     5
   78    81    82     5
   78    81    83     5
   78    81    84     5
   82    81    83     5
   82    81    84     5
   83    81    84     5
   81    84    85     5
   81    84    86     5
   81    84    87     5
   85    84    86     5
   85    84    87     5
   86    84    87     5
   84    87    88     5
   84    87    89     5
   84    87    90     5
   88    87    89     5
   88    87    90     5
   89    87    90     5
   87    90    91     5
   87    90    92     5
   87    90    93     5
   91    90    92     5
   91    90    93     5
   92    90    93     5
   44    94    95     5
   44    94    96     5
   44    94    97     5
   95    94    96     5
   95    94    97     5
   96    94    97     5
   94    97    98     5
   94    97    99     5
   94    97   100     5
   98    97    99     5
   98    97   100     5
   99    97   100     5
   97   100   101     5
   97   100   102     5
   97   100   103     5
  101   100   102     5
  101   100   103     5
  102   100   103     5
  100   103   104     5
  100   103   105     5
  100   103   106     5
  104   103   105     5
  104   103   106     5
  105   103   106     5
  103   106   107     5
  103   106   108     5
  103   106   109     5
  107   106   108     5
  107   106   109     5
  108   106   109     5
  106   109   110     5
  106   109   111     5
  106   109   112     5
  110   109   111     5
  110   109   112     5
  111   109   112     5
  109   112   113     5
  109   112   114     5
  113   112   114     5
  112   114   115     5
  112   114   116     5
  115   114   116     5
  114   116   117     5
  114   116   118     5
  114   116   119     5
  117   116   118     5
  117   116   119     5
  118   116   119     5
  116   119   120     5
  116   119   121     5
  116   119   122     5
  120   119   121     5
  120   119   122     5
  121   119   122     5
  119   122   123     5
  119   122   124     5
  119   122   125     5
  123   122   124     5
  123   122   125     5
  124   122   125     5
  122   125   126     5
  122   125   127     5
  122   125   128     5
  126   125   127     5
  126   125   128     5
  127   125   128     5
  125   128   129     5
  125   128   130     5
  125   128   131     5
  129   128   130     5
  129   128   131     5
  130   128   131     5
  128   131   132     5
  128   131   133     5
  128   131   134     5
  132   131   133     5
  132   131   134     5
  133   131   134     5
  131   134   135     5
  131   134   136     5
  131   134   137     5
  135   134   136     5
  135   134   137     5
  136   134   137     5
  134   137   138     5
  134   137   139     5
  134   137   140     5
  138   137   139     5
  138   137   140     5
  139   137   140     5

[ dihedrals ]
; ai	aj	ak	al	funct	phi0	cp	mult
    5     1     2    17     9
    9     1     2    17     9
   13     1     2    17     9
    2     1     5     6     9
    2     1     5     7     9
    2     1     5     8     9
    2     1     9    10     9
    2     1     9    11     9
    2     1     9    12     9
    5     1     9    10     9
    5     1     9    11     9
    5     1     9    12     9
    2     1    13    14     9
    2     1    13    15     9
    2     1    13    16     9
    5     1    13    14     9
    5     1    13    15     9
    5     1    13    16     9
    9     1    13    14     9
    9     1    13    15     9
    9     1    13    16     9
    3     2     1     5     9
    3     2     1     9     9
    3     2     1    13     9
    4     2     1     5     9
    4     2     1     9     9
    4     2     1    13     9
    1     2    17    18     9
    1     2    17    19     9
    1     2    17    23     9
    3     2    17    18     9
    3     2    17    19     9
    3     2    17    23     9
    4     2    17    18     9
    4     2    17    19     9
    4     2    17    23     9
    6     5     1     9     9
    6     5     1    13     9
    7     5     1     9     9
    7     5     1    13     9
    8     5     1     9     9
    8     5     1    13     9
   10     9     1    13     9
   11     9     1    13     9
   12     9     1    13     9
    2    17    23    20     9
   18    17    23    20     9
   19    17    23    20     9
   21    20    24    25     9
   22    20    24    25     9
   23    20    24    25     9
   17    23    20    21     9
   17    23    20    22     9
   17    23    20    24     9
   20    24    25    26     9
   20    24    25    27     9
   20    24    25    28     9
   24    25    28    29     9
   24    25    28    30     9
   24    25    28    37     9
   26    25    28    29     9
   26    25    28    30     9
   26    25    28    37     9
   27    25    28    29     9
   27    25    28    30     9
   27    25    28    37     9
   25    28    30    31     9
   29    28    30    31     9
   25    28    37    38     9
   25    28    37    39     9
   25    28    37    40     9
   29    28    37    38     9
   29    28    37    39     9
   29    28    37    40     9
   30    28    37    38     9
   30    28    37    39     9
   30    28    37    40     9
   31    30    28    37     9
   28    30    31    32     9
   28    30    31    33     9
   28    30    31    34     9
   30    31    34    35     9
   30    31    34    36     9
   30    31    34    47     9
   32    31    34    35     9
   32    31    34    36     9
   32    31    34    47     9
   33    31    34    35     9
   33    31    34    36     9
   33    31    34    47     9
   31    34    47    48     9
   31    34    47    49     9
   31    34    47    50     9
   35    34    47    48     9
   35    34    47    49     9
   35    34    47    50     9
   36    34    47    48     9
   36    34    47    49     9
   36    34    47    50     9
   28    37    40    41     9
   38    37    40    41     9
   39    37    40    41     9
   37    40    41    42     9
   37    40    41    43     9
   37    40    41    44     9
   40    41    44    45     9
   40    41    44    46     9
   40    41    44    94     9
   42    41    44    45     9
   42    41    44    46     9
   42    41    44    94     9
   43    41    44    45     9
   43    41    44    46     9
   43    41    44    94     9
   41    44    94    95     9
   41    44    94    96     9
   41    44    94    97     9
   45    44    94    95     9
   45    44    94    96     9
   45    44    94    97     9
   46    44    94    95     9
   46    44    94    96     9
   46    44    94    97     9
   34    47    50    51     9
   34    47    50    52     9
   34    47    50    53     9
   48    47    50    51     9
   48    47    50    52     9
   48    47    50    53     9
   49    47    50    51     9
   49    47    50    52     9
   49    47    50    53     9
   47    50    53    54     9
   47    50    53    55     9
   47    50    53    56     9
   51    50    53    54     9
   51    50    53    55     9
   51    50    53    56     9
   52    50    53    54     9
   52    50    53    55     9
   52    50    53    56     9
   50    53    56    57     9
   50    53    56    58     9
   50    53    56    59     9
   54    53    56    57     9
   54    53    56    58     9
   54    53    56    59     9
   55    53    56    57     9
   55    53    56    58     9
   55    53    56    59     9
   53    56    59    60     9
   53    56    59    61     9
   53    56    59    62     9
   57    56    59    60     9
   57    56    59    61     9
   57    56    59    62     9
   58    56    59    60     9
   58    56    59    61     9
   58    56    59    62     9
   56    59    62    63     9
   56    59    62    64     9
   56    59    62    65     9
   60    59    62    63     9
   60    59    62    64     9
   60    59    62    65     9
   61    59    62    63     9
   61    59    62    64     9
   61    59    62    65     9
   59    62    65    66     9
   59    62    65    67     9
   63    62    65    66     9
   63    62    65    67     9
   64    62    65    66     9
   64    62    65    67     9
   62    65    67    68     9
   62    65    67    69     9
   66    65    67    68     9
   66    65    67    69     9
   65    67    69    70     9
   65    67    69    71     9
   65    67    69    72     9
   68    67    69    70     9
   68    67    69    71     9
   68    67    69    72     9
   67    69    72    73     9
   67    69    72    74     9
   67    69    72    75     9
   70    69    72    73     9
   70    69    72    74     9
   70    69    72    75     9
   71    69    72    73     9
   71    69    72    74     9
   71    69    72    75     9
   69    72    75    76     9
   69    72    75    77     9
   69    72    75    78     9
   73    72    75    76     9
   73    72    75    77     9
   73    72    75    78     9
   74    72    75    76     9
   74    72    75    77     9
   74    72    75    78     9
   72    75    78    79     9
   72    75    78    80     9
   72    75    78    81     9
   76    75    78    79     9
   76    75    78    80     9
   76    75    78    81     9
   77    75    78    79     9
   77    75    78    80     9
   77    75    78    81     9
   75    78    81    82     9
   75    78    81    83     9
   75    78    81    84     9
   79    78    81    82     9
   79    78    81    83     9
   79    78    81    84     9
   80    78    81    82     9
   80    78    81    83     9
   80    78    81    84     9
   78    81    84    85     9
   78    81    84    86     9
   78    81    84    87     9
   82    81    84    85     9
   82    81    84    86     9
   82    81    84    87     9
   83    81    84    85     9
   83    81    84    86     9
   83    81    84    87     9
   81    84    87    88     9
   81    84    87    89     9
   81    84    87    90     9
   85    84    87    88     9
   85    84    87    89     9
   85    84    87    90     9
   86    84    87    88     9
   86    84    87    89     9
   86    84    87    90     9
   84    87    90    91     9
   84    87    90    92     9
   84    87    90    93     9
   88    87    90    91     9
   88    87    90    92     9
   88    87    90    93     9
   89    87    90    91     9
   89    87    90    92     9
   89    87    90    93     9
   44    94    97    98     9
   44    94    97    99     9
   44    94    97   100     9
   95    94    97    98     9
   95    94    97    99     9
   95    94    97   100     9
   96    94    97    98     9
   96    94    97    99     9
   96    94    97   100     9
   94    97   100   101     9
   94    97   100   102     9
   94    97   100   103     9
   98    97   100   101     9
   98    97   100   102     9
   98    97   100   103     9
   99    97   100   101     9
   99    97   100   102     9
   99    97   100   103     9
   97   100   103   104     9
   97   100   103   105     9
   97   100   103   106     9
  101   100   103   104     9
  101   100   103   105     9
  101   100   103   106     9
  102   100   103   104     9
  102   100   103   105     9
  102   100   103   106     9
  100   103   106   107     9
  100   103   106   108     9
  100   103   106   109     9
  104   103   106   107     9
  104   103   106   108     9
  104   103   106   109     9
  105   103   106   107     9
  105   103   106   108     9
  105   103   106   109     9
  103   106   109   110     9
  103   106   109   111     9
  103   106   109   112     9
  107   106   109   110     9
  107   106   109   111     9
  107   106   109   112     9
  108   106   109   110     9
  108   106   109   111     9
  108   106   109   112     9
  106   109   112   113     9
  106   109   112   114     9
  110   109   112   113     9
  110   109   112   114     9
  111   109   112   113     9
  111   109   112   114     9
  109   112   114   115     9
  109   112   114   116     9
  113   112   114   115     9
  113   112   114   116     9
  112   114   116   117     9
  112   114   116   118     9
  112   114   116   119     9
  115   114   116   117     9
  115   114   116   118     9
  115   114   116   119     9
  114   116   119   120     9
  114   116   119   121     9
  114   116   119   122     9
  117   116   119   120     9
  117   116   119   121     9
  117   116   119   122     9
  118   116   119   120     9
  118   116   119   121     9
  118   116   119   122     9
  116   119   122   123     9
  116   119   122   124     9
  116   119   122   125     9
  120   119   122   123     9
  120   119   122   124     9
  120   119   122   125     9
  121   119   122   123     9
  121   119   122   124     9
  121   119   122   125     9
  119   122   125   126     9
  119   122   125   127     9
  119   122   125   128     9
  123   122   125   126     9
  123   122   125   127     9
  123   122   125   128     9
  124   122   125   126     9
  124   122   125   127     9
  124   122   125   128     9
  122   125   128   129     9
  122   125   128   130     9
  122   125   128   131     9
  126   125   128   129     9
  126   125   128   130     9
  126   125   128   131     9
  127   125   128   129     9
  127   125   128   130     9
  127   125   128   131     9
  125   128   131   132     9
  125   128   131   133     9
  125   128   131   134     9
  129   128   131   132     9
  129   128   131   133     9
  129   128   131   134     9
  130   128   131   132     9
  130   128   131   133     9
  130   128   131   134     9
  128   131   134   135     9
  128   131   134   136     9
  128   131   134   137     9
  132   131   134   135     9
  132   131   134   136     9
  132   131   134   137     9
  133   131   134   135     9
  133   131   134   136     9
  133   131   134   137     9
  131   134   137   138     9
  131   134   137   139     9
  131   134   137   140     9
  135   134   137   138     9
  135   134   137   139     9
  135   134   137   140     9
  136   134   137   138     9
  136   134   137   139     9
  136   134   137   140     9

#ifdef POSRES
[ position_restraints ]
   20     1     0.0             0.0            POSRES_FC_LIPID
#endif

#ifdef DIHRES
[ dihedral_restraints ]
   25    37    28    30     1   -120.0      2.5       DIHRES_FC
   62    65    67    69     1      0.0      0.0       DIHRES_FC
  109   112   114   116     1      0.0      0.0       DIHRES_FC
#endif
