;;
;; Generated by CHARMM-GUI FF-Converter
;;
;; Correspondance:
;; jul316@lehigh.edu or wonpil@lehigh.edu
;;
;; GROMACS topology file for DOPP2
;;


[ moleculetype ]
; name	nrexcl
DOPP2	     3

[ atoms ]
; nr	type	resnr	residu	atom	cgnr	charge	mass
     1         P3    159    DOPP2     P2      1     1.100000    30.9740   ; qtot  1.100
     2        ON3    159    DOPP2   OP22      2    -0.900000    15.9994   ; qtot  0.200
     3        ON3    159    DOPP2   OP23      3    -0.900000    15.9994   ; qtot -0.700
     4        ON3    159    DOPP2   OP24      4    -0.900000    15.9994   ; qtot -1.600
     5          P    159    DOPP2     P1      5     1.760000    30.9740   ; qtot  0.160
     6        ON2    159    DOPP2    O12      6    -0.740000    15.9994   ; qtot -0.580
     7        ON4    159    DOPP2    O13      7    -0.630000    15.9994   ; qtot -1.210
     8        HN4    159    DOPP2   HO13      8     0.450000     1.0080   ; qtot -0.760
     9        ON3    159    DOPP2    O14      9    -0.720000    15.9994   ; qtot -1.480
    10        ON2    159    DOPP2    O11     10    -0.620000    15.9994   ; qtot -2.100
    11       CTL2    159    DOPP2     C1     11    -0.080000    12.0110   ; qtot -2.180
    12       HAL2    159    DOPP2     HA     12     0.090000     1.0080   ; qtot -2.090
    13       HAL2    159    DOPP2     HB     13     0.090000     1.0080   ; qtot -2.000
    14       CTL1    159    DOPP2     C2     14     0.170000    12.0110   ; qtot -1.830
    15       HAL1    159    DOPP2     HS     15     0.090000     1.0080   ; qtot -1.740
    16        OSL    159    DOPP2    O21     16    -0.490000    15.9994   ; qtot -2.230
    17         CL    159    DOPP2    C21     17     0.900000    12.0110   ; qtot -1.330
    18        OBL    159    DOPP2    O22     18    -0.630000    15.9994   ; qtot -1.960
    19       CTL2    159    DOPP2    C22     19    -0.220000    12.0110   ; qtot -2.180
    20       HAL2    159    DOPP2    H2R     20     0.090000     1.0080   ; qtot -2.090
    21       HAL2    159    DOPP2    H2S     21     0.090000     1.0080   ; qtot -2.000
    22       CTL2    159    DOPP2     C3     22     0.080000    12.0110   ; qtot -1.920
    23       HAL2    159    DOPP2     HX     23     0.090000     1.0080   ; qtot -1.830
    24       HAL2    159    DOPP2     HY     24     0.090000     1.0080   ; qtot -1.740
    25        OSL    159    DOPP2    O31     25    -0.490000    15.9994   ; qtot -2.230
    26         CL    159    DOPP2    C31     26     0.900000    12.0110   ; qtot -1.330
    27        OBL    159    DOPP2    O32     27    -0.630000    15.9994   ; qtot -1.960
    28       CTL2    159    DOPP2    C32     28    -0.220000    12.0110   ; qtot -2.180
    29       HAL2    159    DOPP2    H2X     29     0.090000     1.0080   ; qtot -2.090
    30       HAL2    159    DOPP2    H2Y     30     0.090000     1.0080   ; qtot -2.000
    31       CTL2    159    DOPP2    C23     31    -0.180000    12.0110   ; qtot -2.180
    32       HAL2    159    DOPP2    H3R     32     0.090000     1.0080   ; qtot -2.090
    33       HAL2    159    DOPP2    H3S     33     0.090000     1.0080   ; qtot -2.000
    34       CTL2    159    DOPP2    C24     34    -0.180000    12.0110   ; qtot -2.180
    35       HAL2    159    DOPP2    H4R     35     0.090000     1.0080   ; qtot -2.090
    36       HAL2    159    DOPP2    H4S     36     0.090000     1.0080   ; qtot -2.000
    37       CTL2    159    DOPP2    C25     37    -0.180000    12.0110   ; qtot -2.180
    38       HAL2    159    DOPP2    H5R     38     0.090000     1.0080   ; qtot -2.090
    39       HAL2    159    DOPP2    H5S     39     0.090000     1.0080   ; qtot -2.000
    40       CTL2    159    DOPP2    C26     40    -0.180000    12.0110   ; qtot -2.180
    41       HAL2    159    DOPP2    H6R     41     0.090000     1.0080   ; qtot -2.090
    42       HAL2    159    DOPP2    H6S     42     0.090000     1.0080   ; qtot -2.000
    43       CTL2    159    DOPP2    C27     43    -0.180000    12.0110   ; qtot -2.180
    44       HAL2    159    DOPP2    H7R     44     0.090000     1.0080   ; qtot -2.090
    45       HAL2    159    DOPP2    H7S     45     0.090000     1.0080   ; qtot -2.000
    46       CTL2    159    DOPP2    C28     46    -0.180000    12.0110   ; qtot -2.180
    47       HAL2    159    DOPP2    H8R     47     0.090000     1.0080   ; qtot -2.090
    48       HAL2    159    DOPP2    H8S     48     0.090000     1.0080   ; qtot -2.000
    49       CEL1    159    DOPP2    C29     49    -0.150000    12.0110   ; qtot -2.150
    50       HEL1    159    DOPP2    H9R     50     0.150000     1.0080   ; qtot -2.000
    51       CEL1    159    DOPP2   C210     51    -0.150000    12.0110   ; qtot -2.150
    52       HEL1    159    DOPP2   H10R     52     0.150000     1.0080   ; qtot -2.000
    53       CTL2    159    DOPP2   C211     53    -0.180000    12.0110   ; qtot -2.180
    54       HAL2    159    DOPP2   H11R     54     0.090000     1.0080   ; qtot -2.090
    55       HAL2    159    DOPP2   H11S     55     0.090000     1.0080   ; qtot -2.000
    56       CTL2    159    DOPP2   C212     56    -0.180000    12.0110   ; qtot -2.180
    57       HAL2    159    DOPP2   H12R     57     0.090000     1.0080   ; qtot -2.090
    58       HAL2    159    DOPP2   H12S     58     0.090000     1.0080   ; qtot -2.000
    59       CTL2    159    DOPP2   C213     59    -0.180000    12.0110   ; qtot -2.180
    60       HAL2    159    DOPP2   H13R     60     0.090000     1.0080   ; qtot -2.090
    61       HAL2    159    DOPP2   H13S     61     0.090000     1.0080   ; qtot -2.000
    62       CTL2    159    DOPP2   C214     62    -0.180000    12.0110   ; qtot -2.180
    63       HAL2    159    DOPP2   H14R     63     0.090000     1.0080   ; qtot -2.090
    64       HAL2    159    DOPP2   H14S     64     0.090000     1.0080   ; qtot -2.000
    65       CTL2    159    DOPP2   C215     65    -0.180000    12.0110   ; qtot -2.180
    66       HAL2    159    DOPP2   H15R     66     0.090000     1.0080   ; qtot -2.090
    67       HAL2    159    DOPP2   H15S     67     0.090000     1.0080   ; qtot -2.000
    68       CTL2    159    DOPP2   C216     68    -0.180000    12.0110   ; qtot -2.180
    69       HAL2    159    DOPP2   H16R     69     0.090000     1.0080   ; qtot -2.090
    70       HAL2    159    DOPP2   H16S     70     0.090000     1.0080   ; qtot -2.000
    71       CTL2    159    DOPP2   C217     71    -0.180000    12.0110   ; qtot -2.180
    72       HAL2    159    DOPP2   H17R     72     0.090000     1.0080   ; qtot -2.090
    73       HAL2    159    DOPP2   H17S     73     0.090000     1.0080   ; qtot -2.000
    74       CTL3    159    DOPP2   C218     74    -0.270000    12.0110   ; qtot -2.270
    75       HAL3    159    DOPP2   H18R     75     0.090000     1.0080   ; qtot -2.180
    76       HAL3    159    DOPP2   H18S     76     0.090000     1.0080   ; qtot -2.090
    77       HAL3    159    DOPP2   H18T     77     0.090000     1.0080   ; qtot -2.000
    78       CTL2    159    DOPP2    C33     78    -0.180000    12.0110   ; qtot -2.180
    79       HAL2    159    DOPP2    H3X     79     0.090000     1.0080   ; qtot -2.090
    80       HAL2    159    DOPP2    H3Y     80     0.090000     1.0080   ; qtot -2.000
    81       CTL2    159    DOPP2    C34     81    -0.180000    12.0110   ; qtot -2.180
    82       HAL2    159    DOPP2    H4X     82     0.090000     1.0080   ; qtot -2.090
    83       HAL2    159    DOPP2    H4Y     83     0.090000     1.0080   ; qtot -2.000
    84       CTL2    159    DOPP2    C35     84    -0.180000    12.0110   ; qtot -2.180
    85       HAL2    159    DOPP2    H5X     85     0.090000     1.0080   ; qtot -2.090
    86       HAL2    159    DOPP2    H5Y     86     0.090000     1.0080   ; qtot -2.000
    87       CTL2    159    DOPP2    C36     87    -0.180000    12.0110   ; qtot -2.180
    88       HAL2    159    DOPP2    H6X     88     0.090000     1.0080   ; qtot -2.090
    89       HAL2    159    DOPP2    H6Y     89     0.090000     1.0080   ; qtot -2.000
    90       CTL2    159    DOPP2    C37     90    -0.180000    12.0110   ; qtot -2.180
    91       HAL2    159    DOPP2    H7X     91     0.090000     1.0080   ; qtot -2.090
    92       HAL2    159    DOPP2    H7Y     92     0.090000     1.0080   ; qtot -2.000
    93       CTL2    159    DOPP2    C38     93    -0.180000    12.0110   ; qtot -2.180
    94       HAL2    159    DOPP2    H8X     94     0.090000     1.0080   ; qtot -2.090
    95       HAL2    159    DOPP2    H8Y     95     0.090000     1.0080   ; qtot -2.000
    96       CEL1    159    DOPP2    C39     96    -0.150000    12.0110   ; qtot -2.150
    97       HEL1    159    DOPP2    H9X     97     0.150000     1.0080   ; qtot -2.000
    98       CEL1    159    DOPP2   C310     98    -0.150000    12.0110   ; qtot -2.150
    99       HEL1    159    DOPP2   H10X     99     0.150000     1.0080   ; qtot -2.000
   100       CTL2    159    DOPP2   C311    100    -0.180000    12.0110   ; qtot -2.180
   101       HAL2    159    DOPP2   H11X    101     0.090000     1.0080   ; qtot -2.090
   102       HAL2    159    DOPP2   H11Y    102     0.090000     1.0080   ; qtot -2.000
   103       CTL2    159    DOPP2   C312    103    -0.180000    12.0110   ; qtot -2.180
   104       HAL2    159    DOPP2   H12X    104     0.090000     1.0080   ; qtot -2.090
   105       HAL2    159    DOPP2   H12Y    105     0.090000     1.0080   ; qtot -2.000
   106       CTL2    159    DOPP2   C313    106    -0.180000    12.0110   ; qtot -2.180
   107       HAL2    159    DOPP2   H13X    107     0.090000     1.0080   ; qtot -2.090
   108       HAL2    159    DOPP2   H13Y    108     0.090000     1.0080   ; qtot -2.000
   109       CTL2    159    DOPP2   C314    109    -0.180000    12.0110   ; qtot -2.180
   110       HAL2    159    DOPP2   H14X    110     0.090000     1.0080   ; qtot -2.090
   111       HAL2    159    DOPP2   H14Y    111     0.090000     1.0080   ; qtot -2.000
   112       CTL2    159    DOPP2   C315    112    -0.180000    12.0110   ; qtot -2.180
   113       HAL2    159    DOPP2   H15X    113     0.090000     1.0080   ; qtot -2.090
   114       HAL2    159    DOPP2   H15Y    114     0.090000     1.0080   ; qtot -2.000
   115       CTL2    159    DOPP2   C316    115    -0.180000    12.0110   ; qtot -2.180
   116       HAL2    159    DOPP2   H16X    116     0.090000     1.0080   ; qtot -2.090
   117       HAL2    159    DOPP2   H16Y    117     0.090000     1.0080   ; qtot -2.000
   118       CTL2    159    DOPP2   C317    118    -0.180000    12.0110   ; qtot -2.180
   119       HAL2    159    DOPP2   H17X    119     0.090000     1.0080   ; qtot -2.090
   120       HAL2    159    DOPP2   H17Y    120     0.090000     1.0080   ; qtot -2.000
   121       CTL3    159    DOPP2   C318    121    -0.270000    12.0110   ; qtot -2.270
   122       HAL3    159    DOPP2   H18X    122     0.090000     1.0080   ; qtot -2.180
   123       HAL3    159    DOPP2   H18Y    123     0.090000     1.0080   ; qtot -2.090
   124       HAL3    159    DOPP2   H18Z    124     0.090000     1.0080   ; qtot -2.000

[ bonds ]
; ai	aj	funct	b0	Kb
    2     1     1
    1     3     1
    1     4     1
    1     6     1
    5     6     1
    5     7     1
    5     9     1
    5    10     1
    7     8     1
   10    11     1
   11    12     1
   11    13     1
   11    14     1
   14    15     1
   14    16     1
   14    22     1
   16    17     1
   17    18     1
   17    19     1
   19    20     1
   19    21     1
   19    31     1
   22    23     1
   22    24     1
   22    25     1
   25    26     1
   26    27     1
   26    28     1
   28    29     1
   28    30     1
   28    78     1
   31    32     1
   31    33     1
   31    34     1
   34    35     1
   34    36     1
   34    37     1
   37    38     1
   37    39     1
   37    40     1
   40    41     1
   40    42     1
   40    43     1
   43    44     1
   43    45     1
   43    46     1
   46    47     1
   46    48     1
   46    49     1
   49    50     1
   49    51     1
   51    52     1
   51    53     1
   53    54     1
   53    55     1
   53    56     1
   56    57     1
   56    58     1
   56    59     1
   59    60     1
   59    61     1
   59    62     1
   62    63     1
   62    64     1
   62    65     1
   65    66     1
   65    67     1
   65    68     1
   68    69     1
   68    70     1
   68    71     1
   71    72     1
   71    73     1
   71    74     1
   74    75     1
   74    76     1
   74    77     1
   78    79     1
   78    80     1
   78    81     1
   81    82     1
   81    83     1
   81    84     1
   84    85     1
   84    86     1
   84    87     1
   87    88     1
   87    89     1
   87    90     1
   90    91     1
   90    92     1
   90    93     1
   93    94     1
   93    95     1
   93    96     1
   96    97     1
   96    98     1
   98    99     1
   98   100     1
  100   101     1
  100   102     1
  100   103     1
  103   104     1
  103   105     1
  103   106     1
  106   107     1
  106   108     1
  106   109     1
  109   110     1
  109   111     1
  109   112     1
  112   113     1
  112   114     1
  112   115     1
  115   116     1
  115   117     1
  115   118     1
  118   119     1
  118   120     1
  118   121     1
  121   122     1
  121   123     1
  121   124     1

[ pairs ]
; ai	aj	funct	c6	c12 or
; ai	aj	funct	fudgeQQ	q1	q2	c6	c12
    1     7     1
    1     9     1
    1    10     1
    2     5     1
    3     5     1
    4     5     1
    5    12     1
    5    13     1
    5    14     1
    6     8     1
    6    11     1
    7    11     1
    8     9     1
    8    10     1
    9    11     1
   10    15     1
   10    16     1
   10    22     1
   11    17     1
   11    23     1
   11    24     1
   11    25     1
   12    15     1
   12    16     1
   12    22     1
   13    15     1
   13    16     1
   13    22     1
   14    18     1
   14    19     1
   14    26     1
   15    17     1
   15    23     1
   15    24     1
   15    25     1
   16    20     1
   16    21     1
   16    23     1
   16    24     1
   16    25     1
   16    31     1
   17    22     1
   17    32     1
   17    33     1
   17    34     1
   18    20     1
   18    21     1
   18    31     1
   19    35     1
   19    36     1
   19    37     1
   20    32     1
   20    33     1
   20    34     1
   21    32     1
   21    33     1
   21    34     1
   22    27     1
   22    28     1
   23    26     1
   24    26     1
   25    29     1
   25    30     1
   25    78     1
   26    79     1
   26    80     1
   26    81     1
   27    29     1
   27    30     1
   27    78     1
   28    82     1
   28    83     1
   28    84     1
   29    79     1
   29    80     1
   29    81     1
   30    79     1
   30    80     1
   30    81     1
   31    38     1
   31    39     1
   31    40     1
   32    35     1
   32    36     1
   32    37     1
   33    35     1
   33    36     1
   33    37     1
   34    41     1
   34    42     1
   34    43     1
   35    38     1
   35    39     1
   35    40     1
   36    38     1
   36    39     1
   36    40     1
   37    44     1
   37    45     1
   37    46     1
   38    41     1
   38    42     1
   38    43     1
   39    41     1
   39    42     1
   39    43     1
   40    47     1
   40    48     1
   40    49     1
   41    44     1
   41    45     1
   41    46     1
   42    44     1
   42    45     1
   42    46     1
   43    50     1
   43    51     1
   44    47     1
   44    48     1
   44    49     1
   45    47     1
   45    48     1
   45    49     1
   46    52     1
   46    53     1
   47    50     1
   47    51     1
   48    50     1
   48    51     1
   49    54     1
   49    55     1
   49    56     1
   50    52     1
   50    53     1
   51    57     1
   51    58     1
   51    59     1
   52    54     1
   52    55     1
   52    56     1
   53    60     1
   53    61     1
   53    62     1
   54    57     1
   54    58     1
   54    59     1
   55    57     1
   55    58     1
   55    59     1
   56    63     1
   56    64     1
   56    65     1
   57    60     1
   57    61     1
   57    62     1
   58    60     1
   58    61     1
   58    62     1
   59    66     1
   59    67     1
   59    68     1
   60    63     1
   60    64     1
   60    65     1
   61    63     1
   61    64     1
   61    65     1
   62    69     1
   62    70     1
   62    71     1
   63    66     1
   63    67     1
   63    68     1
   64    66     1
   64    67     1
   64    68     1
   65    72     1
   65    73     1
   65    74     1
   66    69     1
   66    70     1
   66    71     1
   67    69     1
   67    70     1
   67    71     1
   68    75     1
   68    76     1
   68    77     1
   69    72     1
   69    73     1
   69    74     1
   70    72     1
   70    73     1
   70    74     1
   72    75     1
   72    76     1
   72    77     1
   73    75     1
   73    76     1
   73    77     1
   78    85     1
   78    86     1
   78    87     1
   79    82     1
   79    83     1
   79    84     1
   80    82     1
   80    83     1
   80    84     1
   81    88     1
   81    89     1
   81    90     1
   82    85     1
   82    86     1
   82    87     1
   83    85     1
   83    86     1
   83    87     1
   84    91     1
   84    92     1
   84    93     1
   85    88     1
   85    89     1
   85    90     1
   86    88     1
   86    89     1
   86    90     1
   87    94     1
   87    95     1
   87    96     1
   88    91     1
   88    92     1
   88    93     1
   89    91     1
   89    92     1
   89    93     1
   90    97     1
   90    98     1
   91    94     1
   91    95     1
   91    96     1
   92    94     1
   92    95     1
   92    96     1
   93    99     1
   93   100     1
   94    97     1
   94    98     1
   95    97     1
   95    98     1
   96   101     1
   96   102     1
   96   103     1
   97    99     1
   97   100     1
   98   104     1
   98   105     1
   98   106     1
   99   101     1
   99   102     1
   99   103     1
  100   107     1
  100   108     1
  100   109     1
  101   104     1
  101   105     1
  101   106     1
  102   104     1
  102   105     1
  102   106     1
  103   110     1
  103   111     1
  103   112     1
  104   107     1
  104   108     1
  104   109     1
  105   107     1
  105   108     1
  105   109     1
  106   113     1
  106   114     1
  106   115     1
  107   110     1
  107   111     1
  107   112     1
  108   110     1
  108   111     1
  108   112     1
  109   116     1
  109   117     1
  109   118     1
  110   113     1
  110   114     1
  110   115     1
  111   113     1
  111   114     1
  111   115     1
  112   119     1
  112   120     1
  112   121     1
  113   116     1
  113   117     1
  113   118     1
  114   116     1
  114   117     1
  114   118     1
  115   122     1
  115   123     1
  115   124     1
  116   119     1
  116   120     1
  116   121     1
  117   119     1
  117   120     1
  117   121     1
  119   122     1
  119   123     1
  119   124     1
  120   122     1
  120   123     1
  120   124     1

[ angles ] 
; ai	aj	ak	funct	th0	cth	S0	Kub
    2     1     3     5
    2     1     4     5
    2     1     6     5
    3     1     4     5
    3     1     6     5
    4     1     6     5
    6     5     7     5
    6     5     9     5
    6     5    10     5
    7     5     9     5
    7     5    10     5
    9     5    10     5
    1     6     5     5
    5     7     8     5
    5    10    11     5
   10    11    12     5
   10    11    13     5
   10    11    14     5
   12    11    13     5
   12    11    14     5
   13    11    14     5
   11    14    15     5
   11    14    16     5
   11    14    22     5
   15    14    16     5
   15    14    22     5
   16    14    22     5
   14    16    17     5
   16    17    18     5
   16    17    19     5
   18    17    19     5
   17    19    20     5
   17    19    21     5
   17    19    31     5
   20    19    21     5
   20    19    31     5
   21    19    31     5
   14    22    23     5
   14    22    24     5
   14    22    25     5
   23    22    24     5
   23    22    25     5
   24    22    25     5
   22    25    26     5
   25    26    27     5
   25    26    28     5
   27    26    28     5
   26    28    29     5
   26    28    30     5
   26    28    78     5
   29    28    30     5
   29    28    78     5
   30    28    78     5
   19    31    32     5
   19    31    33     5
   19    31    34     5
   32    31    33     5
   32    31    34     5
   33    31    34     5
   31    34    35     5
   31    34    36     5
   31    34    37     5
   35    34    36     5
   35    34    37     5
   36    34    37     5
   34    37    38     5
   34    37    39     5
   34    37    40     5
   38    37    39     5
   38    37    40     5
   39    37    40     5
   37    40    41     5
   37    40    42     5
   37    40    43     5
   41    40    42     5
   41    40    43     5
   42    40    43     5
   40    43    44     5
   40    43    45     5
   40    43    46     5
   44    43    45     5
   44    43    46     5
   45    43    46     5
   43    46    47     5
   43    46    48     5
   43    46    49     5
   47    46    48     5
   47    46    49     5
   48    46    49     5
   46    49    50     5
   46    49    51     5
   50    49    51     5
   49    51    52     5
   49    51    53     5
   52    51    53     5
   51    53    54     5
   51    53    55     5
   51    53    56     5
   54    53    55     5
   54    53    56     5
   55    53    56     5
   53    56    57     5
   53    56    58     5
   53    56    59     5
   57    56    58     5
   57    56    59     5
   58    56    59     5
   56    59    60     5
   56    59    61     5
   56    59    62     5
   60    59    61     5
   60    59    62     5
   61    59    62     5
   59    62    63     5
   59    62    64     5
   59    62    65     5
   63    62    64     5
   63    62    65     5
   64    62    65     5
   62    65    66     5
   62    65    67     5
   62    65    68     5
   66    65    67     5
   66    65    68     5
   67    65    68     5
   65    68    69     5
   65    68    70     5
   65    68    71     5
   69    68    70     5
   69    68    71     5
   70    68    71     5
   68    71    72     5
   68    71    73     5
   68    71    74     5
   72    71    73     5
   72    71    74     5
   73    71    74     5
   71    74    75     5
   71    74    76     5
   71    74    77     5
   75    74    76     5
   75    74    77     5
   76    74    77     5
   28    78    79     5
   28    78    80     5
   28    78    81     5
   79    78    80     5
   79    78    81     5
   80    78    81     5
   78    81    82     5
   78    81    83     5
   78    81    84     5
   82    81    83     5
   82    81    84     5
   83    81    84     5
   81    84    85     5
   81    84    86     5
   81    84    87     5
   85    84    86     5
   85    84    87     5
   86    84    87     5
   84    87    88     5
   84    87    89     5
   84    87    90     5
   88    87    89     5
   88    87    90     5
   89    87    90     5
   87    90    91     5
   87    90    92     5
   87    90    93     5
   91    90    92     5
   91    90    93     5
   92    90    93     5
   90    93    94     5
   90    93    95     5
   90    93    96     5
   94    93    95     5
   94    93    96     5
   95    93    96     5
   93    96    97     5
   93    96    98     5
   97    96    98     5
   96    98    99     5
   96    98   100     5
   99    98   100     5
   98   100   101     5
   98   100   102     5
   98   100   103     5
  101   100   102     5
  101   100   103     5
  102   100   103     5
  100   103   104     5
  100   103   105     5
  100   103   106     5
  104   103   105     5
  104   103   106     5
  105   103   106     5
  103   106   107     5
  103   106   108     5
  103   106   109     5
  107   106   108     5
  107   106   109     5
  108   106   109     5
  106   109   110     5
  106   109   111     5
  106   109   112     5
  110   109   111     5
  110   109   112     5
  111   109   112     5
  109   112   113     5
  109   112   114     5
  109   112   115     5
  113   112   114     5
  113   112   115     5
  114   112   115     5
  112   115   116     5
  112   115   117     5
  112   115   118     5
  116   115   117     5
  116   115   118     5
  117   115   118     5
  115   118   119     5
  115   118   120     5
  115   118   121     5
  119   118   120     5
  119   118   121     5
  120   118   121     5
  118   121   122     5
  118   121   123     5
  118   121   124     5
  122   121   123     5
  122   121   124     5
  123   121   124     5

[ dihedrals ]
; ai	aj	ak	al	funct	phi0	cp	mult
    2     1     6     5     9
    3     1     6     5     9
    4     1     6     5     9
    6     5     7     8     9
    6     5    10    11     9
    7     5    10    11     9
    9     5    10    11     9
    1     6     5     7     9
    1     6     5     9     9
    1     6     5    10     9
    8     7     5     9     9
    8     7     5    10     9
    5    10    11    12     9
    5    10    11    13     9
    5    10    11    14     9
   10    11    14    15     9
   10    11    14    16     9
   10    11    14    22     9
   12    11    14    15     9
   12    11    14    16     9
   12    11    14    22     9
   13    11    14    15     9
   13    11    14    16     9
   13    11    14    22     9
   11    14    16    17     9
   15    14    16    17     9
   11    14    22    23     9
   11    14    22    24     9
   11    14    22    25     9
   15    14    22    23     9
   15    14    22    24     9
   15    14    22    25     9
   16    14    22    23     9
   16    14    22    24     9
   16    14    22    25     9
   17    16    14    22     9
   14    16    17    18     9
   14    16    17    19     9
   16    17    19    20     9
   16    17    19    21     9
   16    17    19    31     9
   18    17    19    20     9
   18    17    19    21     9
   18    17    19    31     9
   17    19    31    32     9
   17    19    31    33     9
   17    19    31    34     9
   20    19    31    32     9
   20    19    31    33     9
   20    19    31    34     9
   21    19    31    32     9
   21    19    31    33     9
   21    19    31    34     9
   14    22    25    26     9
   23    22    25    26     9
   24    22    25    26     9
   22    25    26    27     9
   22    25    26    28     9
   25    26    28    29     9
   25    26    28    30     9
   25    26    28    78     9
   27    26    28    29     9
   27    26    28    30     9
   27    26    28    78     9
   26    28    78    79     9
   26    28    78    80     9
   26    28    78    81     9
   29    28    78    79     9
   29    28    78    80     9
   29    28    78    81     9
   30    28    78    79     9
   30    28    78    80     9
   30    28    78    81     9
   19    31    34    35     9
   19    31    34    36     9
   19    31    34    37     9
   32    31    34    35     9
   32    31    34    36     9
   32    31    34    37     9
   33    31    34    35     9
   33    31    34    36     9
   33    31    34    37     9
   31    34    37    38     9
   31    34    37    39     9
   31    34    37    40     9
   35    34    37    38     9
   35    34    37    39     9
   35    34    37    40     9
   36    34    37    38     9
   36    34    37    39     9
   36    34    37    40     9
   34    37    40    41     9
   34    37    40    42     9
   34    37    40    43     9
   38    37    40    41     9
   38    37    40    42     9
   38    37    40    43     9
   39    37    40    41     9
   39    37    40    42     9
   39    37    40    43     9
   37    40    43    44     9
   37    40    43    45     9
   37    40    43    46     9
   41    40    43    44     9
   41    40    43    45     9
   41    40    43    46     9
   42    40    43    44     9
   42    40    43    45     9
   42    40    43    46     9
   40    43    46    47     9
   40    43    46    48     9
   40    43    46    49     9
   44    43    46    47     9
   44    43    46    48     9
   44    43    46    49     9
   45    43    46    47     9
   45    43    46    48     9
   45    43    46    49     9
   43    46    49    50     9
   43    46    49    51     9
   47    46    49    50     9
   47    46    49    51     9
   48    46    49    50     9
   48    46    49    51     9
   46    49    51    52     9
   46    49    51    53     9
   50    49    51    52     9
   50    49    51    53     9
   49    51    53    54     9
   49    51    53    55     9
   49    51    53    56     9
   52    51    53    54     9
   52    51    53    55     9
   52    51    53    56     9
   51    53    56    57     9
   51    53    56    58     9
   51    53    56    59     9
   54    53    56    57     9
   54    53    56    58     9
   54    53    56    59     9
   55    53    56    57     9
   55    53    56    58     9
   55    53    56    59     9
   53    56    59    60     9
   53    56    59    61     9
   53    56    59    62     9
   57    56    59    60     9
   57    56    59    61     9
   57    56    59    62     9
   58    56    59    60     9
   58    56    59    61     9
   58    56    59    62     9
   56    59    62    63     9
   56    59    62    64     9
   56    59    62    65     9
   60    59    62    63     9
   60    59    62    64     9
   60    59    62    65     9
   61    59    62    63     9
   61    59    62    64     9
   61    59    62    65     9
   59    62    65    66     9
   59    62    65    67     9
   59    62    65    68     9
   63    62    65    66     9
   63    62    65    67     9
   63    62    65    68     9
   64    62    65    66     9
   64    62    65    67     9
   64    62    65    68     9
   62    65    68    69     9
   62    65    68    70     9
   62    65    68    71     9
   66    65    68    69     9
   66    65    68    70     9
   66    65    68    71     9
   67    65    68    69     9
   67    65    68    70     9
   67    65    68    71     9
   65    68    71    72     9
   65    68    71    73     9
   65    68    71    74     9
   69    68    71    72     9
   69    68    71    73     9
   69    68    71    74     9
   70    68    71    72     9
   70    68    71    73     9
   70    68    71    74     9
   68    71    74    75     9
   68    71    74    76     9
   68    71    74    77     9
   72    71    74    75     9
   72    71    74    76     9
   72    71    74    77     9
   73    71    74    75     9
   73    71    74    76     9
   73    71    74    77     9
   28    78    81    82     9
   28    78    81    83     9
   28    78    81    84     9
   79    78    81    82     9
   79    78    81    83     9
   79    78    81    84     9
   80    78    81    82     9
   80    78    81    83     9
   80    78    81    84     9
   78    81    84    85     9
   78    81    84    86     9
   78    81    84    87     9
   82    81    84    85     9
   82    81    84    86     9
   82    81    84    87     9
   83    81    84    85     9
   83    81    84    86     9
   83    81    84    87     9
   81    84    87    88     9
   81    84    87    89     9
   81    84    87    90     9
   85    84    87    88     9
   85    84    87    89     9
   85    84    87    90     9
   86    84    87    88     9
   86    84    87    89     9
   86    84    87    90     9
   84    87    90    91     9
   84    87    90    92     9
   84    87    90    93     9
   88    87    90    91     9
   88    87    90    92     9
   88    87    90    93     9
   89    87    90    91     9
   89    87    90    92     9
   89    87    90    93     9
   87    90    93    94     9
   87    90    93    95     9
   87    90    93    96     9
   91    90    93    94     9
   91    90    93    95     9
   91    90    93    96     9
   92    90    93    94     9
   92    90    93    95     9
   92    90    93    96     9
   90    93    96    97     9
   90    93    96    98     9
   94    93    96    97     9
   94    93    96    98     9
   95    93    96    97     9
   95    93    96    98     9
   93    96    98    99     9
   93    96    98   100     9
   97    96    98    99     9
   97    96    98   100     9
   96    98   100   101     9
   96    98   100   102     9
   96    98   100   103     9
   99    98   100   101     9
   99    98   100   102     9
   99    98   100   103     9
   98   100   103   104     9
   98   100   103   105     9
   98   100   103   106     9
  101   100   103   104     9
  101   100   103   105     9
  101   100   103   106     9
  102   100   103   104     9
  102   100   103   105     9
  102   100   103   106     9
  100   103   106   107     9
  100   103   106   108     9
  100   103   106   109     9
  104   103   106   107     9
  104   103   106   108     9
  104   103   106   109     9
  105   103   106   107     9
  105   103   106   108     9
  105   103   106   109     9
  103   106   109   110     9
  103   106   109   111     9
  103   106   109   112     9
  107   106   109   110     9
  107   106   109   111     9
  107   106   109   112     9
  108   106   109   110     9
  108   106   109   111     9
  108   106   109   112     9
  106   109   112   113     9
  106   109   112   114     9
  106   109   112   115     9
  110   109   112   113     9
  110   109   112   114     9
  110   109   112   115     9
  111   109   112   113     9
  111   109   112   114     9
  111   109   112   115     9
  109   112   115   116     9
  109   112   115   117     9
  109   112   115   118     9
  113   112   115   116     9
  113   112   115   117     9
  113   112   115   118     9
  114   112   115   116     9
  114   112   115   117     9
  114   112   115   118     9
  112   115   118   119     9
  112   115   118   120     9
  112   115   118   121     9
  116   115   118   119     9
  116   115   118   120     9
  116   115   118   121     9
  117   115   118   119     9
  117   115   118   120     9
  117   115   118   121     9
  115   118   121   122     9
  115   118   121   123     9
  115   118   121   124     9
  119   118   121   122     9
  119   118   121   123     9
  119   118   121   124     9
  120   118   121   122     9
  120   118   121   123     9
  120   118   121   124     9

[ dihedrals ]
; ai	aj	ak	al	funct	q0	cq
   17    16    19    18     2
   26    25    28    27     2

#ifdef POSRES
[ position_restraints ]
    5     1     0.0             0.0            POSRES_FC_LIPID
#endif

#ifdef DIHRES
[ dihedral_restraints ]
   11    22    14    16     1   -120.0      2.5       DIHRES_FC
   46    49    51    53     1      0.0      0.0       DIHRES_FC
   93    96    98   100     1      0.0      0.0       DIHRES_FC
#endif
