;;
;; Generated by CHARMM-GUI FF-Converter
;;
;; Correspondance:
;; jul316@lehigh.edu or wonpil@lehigh.edu
;;
;; GROMACS topology file for DPPEE
;;


[ moleculetype ]
; name	nrexcl
DPPEE	     3

[ atoms ]
; nr	type	resnr	residu	atom	cgnr	charge	mass
     1       NH3L     25    DPPEE      N      1    -0.300000    14.0070   ; qtot -0.300
     2        HCL     25    DPPEE    HN1      2     0.330000     1.0080   ; qtot  0.030
     3        HCL     25    DPPEE    HN2      3     0.330000     1.0080   ; qtot  0.360
     4        HCL     25    DPPEE    HN3      4     0.330000     1.0080   ; qtot  0.690
     5       CTL2     25    DPPEE    C12      5     0.130000    12.0110   ; qtot  0.820
     6       HAL2     25    DPPEE   H12A      6     0.090000     1.0080   ; qtot  0.910
     7       HAL2     25    DPPEE   H12B      7     0.090000     1.0080   ; qtot  1.000
     8       CTL2     25    DPPEE    C11      8    -0.080000    12.0110   ; qtot  0.920
     9       HAL2     25    DPPEE   H11A      9     0.090000     1.0080   ; qtot  1.010
    10       HAL2     25    DPPEE   H11B     10     0.090000     1.0080   ; qtot  1.100
    11         PL     25    DPPEE      P     11     1.500000    30.9740   ; qtot  2.600
    12        O2L     25    DPPEE    O13     12    -0.780000    15.9994   ; qtot  1.820
    13        O2L     25    DPPEE    O14     13    -0.780000    15.9994   ; qtot  1.040
    14       OSLP     25    DPPEE    O11     14    -0.570000    15.9994   ; qtot  0.470
    15       OSLP     25    DPPEE    O12     15    -0.570000    15.9994   ; qtot -0.100
    16       CTL2     25    DPPEE     C1     16    -0.080000    12.0110   ; qtot -0.180
    17       HAL2     25    DPPEE     HA     17     0.090000     1.0080   ; qtot -0.090
    18       HAL2     25    DPPEE     HB     18     0.090000     1.0080   ; qtot  0.000
    19       CTL1     25    DPPEE     C2     19     0.130000    12.0110   ; qtot  0.130
    20       HAL1     25    DPPEE     HS     20     0.010000     1.0080   ; qtot  0.140
    21      OG301     25    DPPEE    O21     21    -0.560000    15.9994   ; qtot -0.420
    22       CTL2     25    DPPEE    C21     22     0.400000    12.0110   ; qtot -0.020
    23       HAL2     25    DPPEE    H1R     23     0.010000     1.0080   ; qtot -0.010
    24       HAL2     25    DPPEE    H1S     24     0.010000     1.0080   ; qtot  0.000
    25       CTL2     25    DPPEE    C22     25    -0.180000    12.0110   ; qtot -0.180
    26       HAL2     25    DPPEE    H2R     26     0.090000     1.0080   ; qtot -0.090
    27       HAL2     25    DPPEE    H2S     27     0.090000     1.0080   ; qtot  0.000
    28       CTL2     25    DPPEE     C3     28     0.080000    12.0110   ; qtot  0.080
    29       HAL2     25    DPPEE     HX     29     0.020000     1.0080   ; qtot  0.100
    30       HAL2     25    DPPEE     HY     30     0.020000     1.0080   ; qtot  0.120
    31      OG301     25    DPPEE    O31     31    -0.560000    15.9994   ; qtot -0.440
    32       CTL2     25    DPPEE    C31     32     0.400000    12.0110   ; qtot -0.040
    33       HAL2     25    DPPEE    H1X     33     0.020000     1.0080   ; qtot -0.020
    34       HAL2     25    DPPEE    H1Y     34     0.020000     1.0080   ; qtot  0.000
    35       CTL2     25    DPPEE    C32     35    -0.180000    12.0110   ; qtot -0.180
    36       HAL2     25    DPPEE    H2X     36     0.090000     1.0080   ; qtot -0.090
    37       HAL2     25    DPPEE    H2Y     37     0.090000     1.0080   ; qtot  0.000
    38       CTL2     25    DPPEE    C23     38    -0.180000    12.0110   ; qtot -0.180
    39       HAL2     25    DPPEE    H3R     39     0.090000     1.0080   ; qtot -0.090
    40       HAL2     25    DPPEE    H3S     40     0.090000     1.0080   ; qtot  0.000
    41       CTL2     25    DPPEE    C24     41    -0.180000    12.0110   ; qtot -0.180
    42       HAL2     25    DPPEE    H4R     42     0.090000     1.0080   ; qtot -0.090
    43       HAL2     25    DPPEE    H4S     43     0.090000     1.0080   ; qtot  0.000
    44       CTL2     25    DPPEE    C25     44    -0.180000    12.0110   ; qtot -0.180
    45       HAL2     25    DPPEE    H5R     45     0.090000     1.0080   ; qtot -0.090
    46       HAL2     25    DPPEE    H5S     46     0.090000     1.0080   ; qtot  0.000
    47       CTL2     25    DPPEE    C26     47    -0.180000    12.0110   ; qtot -0.180
    48       HAL2     25    DPPEE    H6R     48     0.090000     1.0080   ; qtot -0.090
    49       HAL2     25    DPPEE    H6S     49     0.090000     1.0080   ; qtot  0.000
    50       CTL2     25    DPPEE    C27     50    -0.180000    12.0110   ; qtot -0.180
    51       HAL2     25    DPPEE    H7R     51     0.090000     1.0080   ; qtot -0.090
    52       HAL2     25    DPPEE    H7S     52     0.090000     1.0080   ; qtot  0.000
    53       CTL2     25    DPPEE    C28     53    -0.180000    12.0110   ; qtot -0.180
    54       HAL2     25    DPPEE    H8R     54     0.090000     1.0080   ; qtot -0.090
    55       HAL2     25    DPPEE    H8S     55     0.090000     1.0080   ; qtot  0.000
    56       CTL2     25    DPPEE    C29     56    -0.180000    12.0110   ; qtot -0.180
    57       HAL2     25    DPPEE    H9R     57     0.090000     1.0080   ; qtot -0.090
    58       HAL2     25    DPPEE    H9S     58     0.090000     1.0080   ; qtot  0.000
    59       CTL2     25    DPPEE   C210     59    -0.180000    12.0110   ; qtot -0.180
    60       HAL2     25    DPPEE   H10R     60     0.090000     1.0080   ; qtot -0.090
    61       HAL2     25    DPPEE   H10S     61     0.090000     1.0080   ; qtot  0.000
    62       CTL2     25    DPPEE   C211     62    -0.180000    12.0110   ; qtot -0.180
    63       HAL2     25    DPPEE   H11R     63     0.090000     1.0080   ; qtot -0.090
    64       HAL2     25    DPPEE   H11S     64     0.090000     1.0080   ; qtot  0.000
    65       CTL2     25    DPPEE   C212     65    -0.180000    12.0110   ; qtot -0.180
    66       HAL2     25    DPPEE   H12R     66     0.090000     1.0080   ; qtot -0.090
    67       HAL2     25    DPPEE   H12S     67     0.090000     1.0080   ; qtot  0.000
    68       CTL2     25    DPPEE   C213     68    -0.180000    12.0110   ; qtot -0.180
    69       HAL2     25    DPPEE   H13R     69     0.090000     1.0080   ; qtot -0.090
    70       HAL2     25    DPPEE   H13S     70     0.090000     1.0080   ; qtot  0.000
    71       CTL2     25    DPPEE   C214     71    -0.180000    12.0110   ; qtot -0.180
    72       HAL2     25    DPPEE   H14R     72     0.090000     1.0080   ; qtot -0.090
    73       HAL2     25    DPPEE   H14S     73     0.090000     1.0080   ; qtot  0.000
    74       CTL2     25    DPPEE   C215     74    -0.180000    12.0110   ; qtot -0.180
    75       HAL2     25    DPPEE   H15R     75     0.090000     1.0080   ; qtot -0.090
    76       HAL2     25    DPPEE   H15S     76     0.090000     1.0080   ; qtot  0.000
    77       CTL3     25    DPPEE   C216     77    -0.270000    12.0110   ; qtot -0.270
    78       HAL3     25    DPPEE   H16R     78     0.090000     1.0080   ; qtot -0.180
    79       HAL3     25    DPPEE   H16S     79     0.090000     1.0080   ; qtot -0.090
    80       HAL3     25    DPPEE   H16T     80     0.090000     1.0080   ; qtot  0.000
    81       CTL2     25    DPPEE    C33     81    -0.180000    12.0110   ; qtot -0.180
    82       HAL2     25    DPPEE    H3X     82     0.090000     1.0080   ; qtot -0.090
    83       HAL2     25    DPPEE    H3Y     83     0.090000     1.0080   ; qtot  0.000
    84       CTL2     25    DPPEE    C34     84    -0.180000    12.0110   ; qtot -0.180
    85       HAL2     25    DPPEE    H4X     85     0.090000     1.0080   ; qtot -0.090
    86       HAL2     25    DPPEE    H4Y     86     0.090000     1.0080   ; qtot  0.000
    87       CTL2     25    DPPEE    C35     87    -0.180000    12.0110   ; qtot -0.180
    88       HAL2     25    DPPEE    H5X     88     0.090000     1.0080   ; qtot -0.090
    89       HAL2     25    DPPEE    H5Y     89     0.090000     1.0080   ; qtot  0.000
    90       CTL2     25    DPPEE    C36     90    -0.180000    12.0110   ; qtot -0.180
    91       HAL2     25    DPPEE    H6X     91     0.090000     1.0080   ; qtot -0.090
    92       HAL2     25    DPPEE    H6Y     92     0.090000     1.0080   ; qtot  0.000
    93       CTL2     25    DPPEE    C37     93    -0.180000    12.0110   ; qtot -0.180
    94       HAL2     25    DPPEE    H7X     94     0.090000     1.0080   ; qtot -0.090
    95       HAL2     25    DPPEE    H7Y     95     0.090000     1.0080   ; qtot  0.000
    96       CTL2     25    DPPEE    C38     96    -0.180000    12.0110   ; qtot -0.180
    97       HAL2     25    DPPEE    H8X     97     0.090000     1.0080   ; qtot -0.090
    98       HAL2     25    DPPEE    H8Y     98     0.090000     1.0080   ; qtot  0.000
    99       CTL2     25    DPPEE    C39     99    -0.180000    12.0110   ; qtot -0.180
   100       HAL2     25    DPPEE    H9X    100     0.090000     1.0080   ; qtot -0.090
   101       HAL2     25    DPPEE    H9Y    101     0.090000     1.0080   ; qtot  0.000
   102       CTL2     25    DPPEE   C310    102    -0.180000    12.0110   ; qtot -0.180
   103       HAL2     25    DPPEE   H10X    103     0.090000     1.0080   ; qtot -0.090
   104       HAL2     25    DPPEE   H10Y    104     0.090000     1.0080   ; qtot  0.000
   105       CTL2     25    DPPEE   C311    105    -0.180000    12.0110   ; qtot -0.180
   106       HAL2     25    DPPEE   H11X    106     0.090000     1.0080   ; qtot -0.090
   107       HAL2     25    DPPEE   H11Y    107     0.090000     1.0080   ; qtot  0.000
   108       CTL2     25    DPPEE   C312    108    -0.180000    12.0110   ; qtot -0.180
   109       HAL2     25    DPPEE   H12X    109     0.090000     1.0080   ; qtot -0.090
   110       HAL2     25    DPPEE   H12Y    110     0.090000     1.0080   ; qtot  0.000
   111       CTL2     25    DPPEE   C313    111    -0.180000    12.0110   ; qtot -0.180
   112       HAL2     25    DPPEE   H13X    112     0.090000     1.0080   ; qtot -0.090
   113       HAL2     25    DPPEE   H13Y    113     0.090000     1.0080   ; qtot  0.000
   114       CTL2     25    DPPEE   C314    114    -0.180000    12.0110   ; qtot -0.180
   115       HAL2     25    DPPEE   H14X    115     0.090000     1.0080   ; qtot -0.090
   116       HAL2     25    DPPEE   H14Y    116     0.090000     1.0080   ; qtot  0.000
   117       CTL2     25    DPPEE   C315    117    -0.180000    12.0110   ; qtot -0.180
   118       HAL2     25    DPPEE   H15X    118     0.090000     1.0080   ; qtot -0.090
   119       HAL2     25    DPPEE   H15Y    119     0.090000     1.0080   ; qtot  0.000
   120       CTL3     25    DPPEE   C316    120    -0.270000    12.0110   ; qtot -0.270
   121       HAL3     25    DPPEE   H16X    121     0.090000     1.0080   ; qtot -0.180
   122       HAL3     25    DPPEE   H16Y    122     0.090000     1.0080   ; qtot -0.090
   123       HAL3     25    DPPEE   H16Z    123     0.090000     1.0080   ; qtot  0.000

[ bonds ]
; ai	aj	funct	b0	Kb
    1     2     1
    1     3     1
    1     4     1
    1     5     1
    5     6     1
    5     7     1
    5     8     1
    8     9     1
    8    10     1
    8    15     1
   11    12     1
   11    13     1
   11    14     1
   15    11     1
   16    14     1
   16    17     1
   16    18     1
   16    19     1
   19    20     1
   19    21     1
   19    28     1
   21    22     1
   22    23     1
   22    24     1
   22    25     1
   25    26     1
   25    27     1
   25    38     1
   28    29     1
   28    30     1
   28    31     1
   31    32     1
   32    33     1
   32    34     1
   32    35     1
   35    36     1
   35    37     1
   35    81     1
   38    39     1
   38    40     1
   38    41     1
   41    42     1
   41    43     1
   41    44     1
   44    45     1
   44    46     1
   44    47     1
   47    48     1
   47    49     1
   47    50     1
   50    51     1
   50    52     1
   50    53     1
   53    54     1
   53    55     1
   53    56     1
   56    57     1
   56    58     1
   56    59     1
   59    60     1
   59    61     1
   59    62     1
   62    63     1
   62    64     1
   62    65     1
   65    66     1
   65    67     1
   65    68     1
   68    69     1
   68    70     1
   68    71     1
   71    72     1
   71    73     1
   71    74     1
   74    75     1
   74    76     1
   74    77     1
   77    78     1
   77    79     1
   77    80     1
   81    82     1
   81    83     1
   81    84     1
   84    85     1
   84    86     1
   84    87     1
   87    88     1
   87    89     1
   87    90     1
   90    91     1
   90    92     1
   90    93     1
   93    94     1
   93    95     1
   93    96     1
   96    97     1
   96    98     1
   96    99     1
   99   100     1
   99   101     1
   99   102     1
  102   103     1
  102   104     1
  102   105     1
  105   106     1
  105   107     1
  105   108     1
  108   109     1
  108   110     1
  108   111     1
  111   112     1
  111   113     1
  111   114     1
  114   115     1
  114   116     1
  114   117     1
  117   118     1
  117   119     1
  117   120     1
  120   121     1
  120   122     1
  120   123     1

[ pairs ]
; ai	aj	funct	c6	c12 or
; ai	aj	funct	fudgeQQ	q1	q2	c6	c12
    1     9     1
    1    10     1
    1    15     1
    2     6     1
    2     7     1
    2     8     1
    3     6     1
    3     7     1
    3     8     1
    4     6     1
    4     7     1
    4     8     1
    5    11     1
    6     9     1
    6    10     1
    6    15     1
    7     9     1
    7    10     1
    7    15     1
    8    12     1
    8    13     1
    8    14     1
    9    11     1
   10    11     1
   11    17     1
   11    18     1
   11    19     1
   12    16     1
   13    16     1
   14    20     1
   14    21     1
   14    28     1
   15    16     1
   16    22     1
   16    29     1
   16    30     1
   16    31     1
   17    20     1
   17    21     1
   17    28     1
   18    20     1
   18    21     1
   18    28     1
   19    23     1
   19    24     1
   19    25     1
   19    32     1
   20    22     1
   20    29     1
   20    30     1
   20    31     1
   21    26     1
   21    27     1
   21    29     1
   21    30     1
   21    31     1
   21    38     1
   22    28     1
   22    39     1
   22    40     1
   22    41     1
   23    26     1
   23    27     1
   23    38     1
   24    26     1
   24    27     1
   24    38     1
   25    42     1
   25    43     1
   25    44     1
   26    39     1
   26    40     1
   26    41     1
   27    39     1
   27    40     1
   27    41     1
   28    33     1
   28    34     1
   28    35     1
   29    32     1
   30    32     1
   31    36     1
   31    37     1
   31    81     1
   32    82     1
   32    83     1
   32    84     1
   33    36     1
   33    37     1
   33    81     1
   34    36     1
   34    37     1
   34    81     1
   35    85     1
   35    86     1
   35    87     1
   36    82     1
   36    83     1
   36    84     1
   37    82     1
   37    83     1
   37    84     1
   38    45     1
   38    46     1
   38    47     1
   39    42     1
   39    43     1
   39    44     1
   40    42     1
   40    43     1
   40    44     1
   41    48     1
   41    49     1
   41    50     1
   42    45     1
   42    46     1
   42    47     1
   43    45     1
   43    46     1
   43    47     1
   44    51     1
   44    52     1
   44    53     1
   45    48     1
   45    49     1
   45    50     1
   46    48     1
   46    49     1
   46    50     1
   47    54     1
   47    55     1
   47    56     1
   48    51     1
   48    52     1
   48    53     1
   49    51     1
   49    52     1
   49    53     1
   50    57     1
   50    58     1
   50    59     1
   51    54     1
   51    55     1
   51    56     1
   52    54     1
   52    55     1
   52    56     1
   53    60     1
   53    61     1
   53    62     1
   54    57     1
   54    58     1
   54    59     1
   55    57     1
   55    58     1
   55    59     1
   56    63     1
   56    64     1
   56    65     1
   57    60     1
   57    61     1
   57    62     1
   58    60     1
   58    61     1
   58    62     1
   59    66     1
   59    67     1
   59    68     1
   60    63     1
   60    64     1
   60    65     1
   61    63     1
   61    64     1
   61    65     1
   62    69     1
   62    70     1
   62    71     1
   63    66     1
   63    67     1
   63    68     1
   64    66     1
   64    67     1
   64    68     1
   65    72     1
   65    73     1
   65    74     1
   66    69     1
   66    70     1
   66    71     1
   67    69     1
   67    70     1
   67    71     1
   68    75     1
   68    76     1
   68    77     1
   69    72     1
   69    73     1
   69    74     1
   70    72     1
   70    73     1
   70    74     1
   71    78     1
   71    79     1
   71    80     1
   72    75     1
   72    76     1
   72    77     1
   73    75     1
   73    76     1
   73    77     1
   75    78     1
   75    79     1
   75    80     1
   76    78     1
   76    79     1
   76    80     1
   81    88     1
   81    89     1
   81    90     1
   82    85     1
   82    86     1
   82    87     1
   83    85     1
   83    86     1
   83    87     1
   84    91     1
   84    92     1
   84    93     1
   85    88     1
   85    89     1
   85    90     1
   86    88     1
   86    89     1
   86    90     1
   87    94     1
   87    95     1
   87    96     1
   88    91     1
   88    92     1
   88    93     1
   89    91     1
   89    92     1
   89    93     1
   90    97     1
   90    98     1
   90    99     1
   91    94     1
   91    95     1
   91    96     1
   92    94     1
   92    95     1
   92    96     1
   93   100     1
   93   101     1
   93   102     1
   94    97     1
   94    98     1
   94    99     1
   95    97     1
   95    98     1
   95    99     1
   96   103     1
   96   104     1
   96   105     1
   97   100     1
   97   101     1
   97   102     1
   98   100     1
   98   101     1
   98   102     1
   99   106     1
   99   107     1
   99   108     1
  100   103     1
  100   104     1
  100   105     1
  101   103     1
  101   104     1
  101   105     1
  102   109     1
  102   110     1
  102   111     1
  103   106     1
  103   107     1
  103   108     1
  104   106     1
  104   107     1
  104   108     1
  105   112     1
  105   113     1
  105   114     1
  106   109     1
  106   110     1
  106   111     1
  107   109     1
  107   110     1
  107   111     1
  108   115     1
  108   116     1
  108   117     1
  109   112     1
  109   113     1
  109   114     1
  110   112     1
  110   113     1
  110   114     1
  111   118     1
  111   119     1
  111   120     1
  112   115     1
  112   116     1
  112   117     1
  113   115     1
  113   116     1
  113   117     1
  114   121     1
  114   122     1
  114   123     1
  115   118     1
  115   119     1
  115   120     1
  116   118     1
  116   119     1
  116   120     1
  118   121     1
  118   122     1
  118   123     1
  119   121     1
  119   122     1
  119   123     1

[ angles ] 
; ai	aj	ak	funct	th0	cth	S0	Kub
    2     1     3     5
    2     1     4     5
    2     1     5     5
    3     1     4     5
    3     1     5     5
    4     1     5     5
    1     5     6     5
    1     5     7     5
    1     5     8     5
    6     5     7     5
    6     5     8     5
    7     5     8     5
    5     8     9     5
    5     8    10     5
    5     8    15     5
    9     8    10     5
    9     8    15     5
   10     8    15     5
   12    11    13     5
   12    11    14     5
   12    11    15     5
   13    11    14     5
   13    11    15     5
   14    11    15     5
   11    14    16     5
    8    15    11     5
   14    16    17     5
   14    16    18     5
   14    16    19     5
   17    16    18     5
   17    16    19     5
   18    16    19     5
   16    19    20     5
   16    19    21     5
   16    19    28     5
   20    19    21     5
   20    19    28     5
   21    19    28     5
   19    21    22     5
   21    22    23     5
   21    22    24     5
   21    22    25     5
   23    22    24     5
   23    22    25     5
   24    22    25     5
   22    25    26     5
   22    25    27     5
   22    25    38     5
   26    25    27     5
   26    25    38     5
   27    25    38     5
   19    28    29     5
   19    28    30     5
   19    28    31     5
   29    28    30     5
   29    28    31     5
   30    28    31     5
   28    31    32     5
   31    32    33     5
   31    32    34     5
   31    32    35     5
   33    32    34     5
   33    32    35     5
   34    32    35     5
   32    35    36     5
   32    35    37     5
   32    35    81     5
   36    35    37     5
   36    35    81     5
   37    35    81     5
   25    38    39     5
   25    38    40     5
   25    38    41     5
   39    38    40     5
   39    38    41     5
   40    38    41     5
   38    41    42     5
   38    41    43     5
   38    41    44     5
   42    41    43     5
   42    41    44     5
   43    41    44     5
   41    44    45     5
   41    44    46     5
   41    44    47     5
   45    44    46     5
   45    44    47     5
   46    44    47     5
   44    47    48     5
   44    47    49     5
   44    47    50     5
   48    47    49     5
   48    47    50     5
   49    47    50     5
   47    50    51     5
   47    50    52     5
   47    50    53     5
   51    50    52     5
   51    50    53     5
   52    50    53     5
   50    53    54     5
   50    53    55     5
   50    53    56     5
   54    53    55     5
   54    53    56     5
   55    53    56     5
   53    56    57     5
   53    56    58     5
   53    56    59     5
   57    56    58     5
   57    56    59     5
   58    56    59     5
   56    59    60     5
   56    59    61     5
   56    59    62     5
   60    59    61     5
   60    59    62     5
   61    59    62     5
   59    62    63     5
   59    62    64     5
   59    62    65     5
   63    62    64     5
   63    62    65     5
   64    62    65     5
   62    65    66     5
   62    65    67     5
   62    65    68     5
   66    65    67     5
   66    65    68     5
   67    65    68     5
   65    68    69     5
   65    68    70     5
   65    68    71     5
   69    68    70     5
   69    68    71     5
   70    68    71     5
   68    71    72     5
   68    71    73     5
   68    71    74     5
   72    71    73     5
   72    71    74     5
   73    71    74     5
   71    74    75     5
   71    74    76     5
   71    74    77     5
   75    74    76     5
   75    74    77     5
   76    74    77     5
   74    77    78     5
   74    77    79     5
   74    77    80     5
   78    77    79     5
   78    77    80     5
   79    77    80     5
   35    81    82     5
   35    81    83     5
   35    81    84     5
   82    81    83     5
   82    81    84     5
   83    81    84     5
   81    84    85     5
   81    84    86     5
   81    84    87     5
   85    84    86     5
   85    84    87     5
   86    84    87     5
   84    87    88     5
   84    87    89     5
   84    87    90     5
   88    87    89     5
   88    87    90     5
   89    87    90     5
   87    90    91     5
   87    90    92     5
   87    90    93     5
   91    90    92     5
   91    90    93     5
   92    90    93     5
   90    93    94     5
   90    93    95     5
   90    93    96     5
   94    93    95     5
   94    93    96     5
   95    93    96     5
   93    96    97     5
   93    96    98     5
   93    96    99     5
   97    96    98     5
   97    96    99     5
   98    96    99     5
   96    99   100     5
   96    99   101     5
   96    99   102     5
  100    99   101     5
  100    99   102     5
  101    99   102     5
   99   102   103     5
   99   102   104     5
   99   102   105     5
  103   102   104     5
  103   102   105     5
  104   102   105     5
  102   105   106     5
  102   105   107     5
  102   105   108     5
  106   105   107     5
  106   105   108     5
  107   105   108     5
  105   108   109     5
  105   108   110     5
  105   108   111     5
  109   108   110     5
  109   108   111     5
  110   108   111     5
  108   111   112     5
  108   111   113     5
  108   111   114     5
  112   111   113     5
  112   111   114     5
  113   111   114     5
  111   114   115     5
  111   114   116     5
  111   114   117     5
  115   114   116     5
  115   114   117     5
  116   114   117     5
  114   117   118     5
  114   117   119     5
  114   117   120     5
  118   117   119     5
  118   117   120     5
  119   117   120     5
  117   120   121     5
  117   120   122     5
  117   120   123     5
  121   120   122     5
  121   120   123     5
  122   120   123     5

[ dihedrals ]
; ai	aj	ak	al	funct	phi0	cp	mult
    2     1     5     6     9
    2     1     5     7     9
    2     1     5     8     9
    3     1     5     6     9
    3     1     5     7     9
    3     1     5     8     9
    4     1     5     6     9
    4     1     5     7     9
    4     1     5     8     9
    1     5     8     9     9
    1     5     8    10     9
    1     5     8    15     9
    6     5     8     9     9
    6     5     8    10     9
    6     5     8    15     9
    7     5     8     9     9
    7     5     8    10     9
    7     5     8    15     9
    5     8    15    11     9
    9     8    15    11     9
   10     8    15    11     9
   12    11    14    16     9
   13    11    14    16     9
   15    11    14    16     9
   11    14    16    17     9
   11    14    16    18     9
   11    14    16    19     9
    8    15    11    12     9
    8    15    11    13     9
    8    15    11    14     9
   14    16    19    20     9
   14    16    19    21     9
   14    16    19    28     9
   17    16    19    20     9
   17    16    19    21     9
   17    16    19    28     9
   18    16    19    20     9
   18    16    19    21     9
   18    16    19    28     9
   16    19    21    22     9
   20    19    21    22     9
   16    19    28    29     9
   16    19    28    30     9
   16    19    28    31     9
   20    19    28    29     9
   20    19    28    30     9
   20    19    28    31     9
   21    19    28    29     9
   21    19    28    30     9
   21    19    28    31     9
   22    21    19    28     9
   19    21    22    23     9
   19    21    22    24     9
   19    21    22    25     9
   21    22    25    26     9
   21    22    25    27     9
   21    22    25    38     9
   23    22    25    26     9
   23    22    25    27     9
   23    22    25    38     9
   24    22    25    26     9
   24    22    25    27     9
   24    22    25    38     9
   22    25    38    39     9
   22    25    38    40     9
   22    25    38    41     9
   26    25    38    39     9
   26    25    38    40     9
   26    25    38    41     9
   27    25    38    39     9
   27    25    38    40     9
   27    25    38    41     9
   19    28    31    32     9
   29    28    31    32     9
   30    28    31    32     9
   28    31    32    33     9
   28    31    32    34     9
   28    31    32    35     9
   31    32    35    36     9
   31    32    35    37     9
   31    32    35    81     9
   33    32    35    36     9
   33    32    35    37     9
   33    32    35    81     9
   34    32    35    36     9
   34    32    35    37     9
   34    32    35    81     9
   32    35    81    82     9
   32    35    81    83     9
   32    35    81    84     9
   36    35    81    82     9
   36    35    81    83     9
   36    35    81    84     9
   37    35    81    82     9
   37    35    81    83     9
   37    35    81    84     9
   25    38    41    42     9
   25    38    41    43     9
   25    38    41    44     9
   39    38    41    42     9
   39    38    41    43     9
   39    38    41    44     9
   40    38    41    42     9
   40    38    41    43     9
   40    38    41    44     9
   38    41    44    45     9
   38    41    44    46     9
   38    41    44    47     9
   42    41    44    45     9
   42    41    44    46     9
   42    41    44    47     9
   43    41    44    45     9
   43    41    44    46     9
   43    41    44    47     9
   41    44    47    48     9
   41    44    47    49     9
   41    44    47    50     9
   45    44    47    48     9
   45    44    47    49     9
   45    44    47    50     9
   46    44    47    48     9
   46    44    47    49     9
   46    44    47    50     9
   44    47    50    51     9
   44    47    50    52     9
   44    47    50    53     9
   48    47    50    51     9
   48    47    50    52     9
   48    47    50    53     9
   49    47    50    51     9
   49    47    50    52     9
   49    47    50    53     9
   47    50    53    54     9
   47    50    53    55     9
   47    50    53    56     9
   51    50    53    54     9
   51    50    53    55     9
   51    50    53    56     9
   52    50    53    54     9
   52    50    53    55     9
   52    50    53    56     9
   50    53    56    57     9
   50    53    56    58     9
   50    53    56    59     9
   54    53    56    57     9
   54    53    56    58     9
   54    53    56    59     9
   55    53    56    57     9
   55    53    56    58     9
   55    53    56    59     9
   53    56    59    60     9
   53    56    59    61     9
   53    56    59    62     9
   57    56    59    60     9
   57    56    59    61     9
   57    56    59    62     9
   58    56    59    60     9
   58    56    59    61     9
   58    56    59    62     9
   56    59    62    63     9
   56    59    62    64     9
   56    59    62    65     9
   60    59    62    63     9
   60    59    62    64     9
   60    59    62    65     9
   61    59    62    63     9
   61    59    62    64     9
   61    59    62    65     9
   59    62    65    66     9
   59    62    65    67     9
   59    62    65    68     9
   63    62    65    66     9
   63    62    65    67     9
   63    62    65    68     9
   64    62    65    66     9
   64    62    65    67     9
   64    62    65    68     9
   62    65    68    69     9
   62    65    68    70     9
   62    65    68    71     9
   66    65    68    69     9
   66    65    68    70     9
   66    65    68    71     9
   67    65    68    69     9
   67    65    68    70     9
   67    65    68    71     9
   65    68    71    72     9
   65    68    71    73     9
   65    68    71    74     9
   69    68    71    72     9
   69    68    71    73     9
   69    68    71    74     9
   70    68    71    72     9
   70    68    71    73     9
   70    68    71    74     9
   68    71    74    75     9
   68    71    74    76     9
   68    71    74    77     9
   72    71    74    75     9
   72    71    74    76     9
   72    71    74    77     9
   73    71    74    75     9
   73    71    74    76     9
   73    71    74    77     9
   71    74    77    78     9
   71    74    77    79     9
   71    74    77    80     9
   75    74    77    78     9
   75    74    77    79     9
   75    74    77    80     9
   76    74    77    78     9
   76    74    77    79     9
   76    74    77    80     9
   35    81    84    85     9
   35    81    84    86     9
   35    81    84    87     9
   82    81    84    85     9
   82    81    84    86     9
   82    81    84    87     9
   83    81    84    85     9
   83    81    84    86     9
   83    81    84    87     9
   81    84    87    88     9
   81    84    87    89     9
   81    84    87    90     9
   85    84    87    88     9
   85    84    87    89     9
   85    84    87    90     9
   86    84    87    88     9
   86    84    87    89     9
   86    84    87    90     9
   84    87    90    91     9
   84    87    90    92     9
   84    87    90    93     9
   88    87    90    91     9
   88    87    90    92     9
   88    87    90    93     9
   89    87    90    91     9
   89    87    90    92     9
   89    87    90    93     9
   87    90    93    94     9
   87    90    93    95     9
   87    90    93    96     9
   91    90    93    94     9
   91    90    93    95     9
   91    90    93    96     9
   92    90    93    94     9
   92    90    93    95     9
   92    90    93    96     9
   90    93    96    97     9
   90    93    96    98     9
   90    93    96    99     9
   94    93    96    97     9
   94    93    96    98     9
   94    93    96    99     9
   95    93    96    97     9
   95    93    96    98     9
   95    93    96    99     9
   93    96    99   100     9
   93    96    99   101     9
   93    96    99   102     9
   97    96    99   100     9
   97    96    99   101     9
   97    96    99   102     9
   98    96    99   100     9
   98    96    99   101     9
   98    96    99   102     9
   96    99   102   103     9
   96    99   102   104     9
   96    99   102   105     9
  100    99   102   103     9
  100    99   102   104     9
  100    99   102   105     9
  101    99   102   103     9
  101    99   102   104     9
  101    99   102   105     9
   99   102   105   106     9
   99   102   105   107     9
   99   102   105   108     9
  103   102   105   106     9
  103   102   105   107     9
  103   102   105   108     9
  104   102   105   106     9
  104   102   105   107     9
  104   102   105   108     9
  102   105   108   109     9
  102   105   108   110     9
  102   105   108   111     9
  106   105   108   109     9
  106   105   108   110     9
  106   105   108   111     9
  107   105   108   109     9
  107   105   108   110     9
  107   105   108   111     9
  105   108   111   112     9
  105   108   111   113     9
  105   108   111   114     9
  109   108   111   112     9
  109   108   111   113     9
  109   108   111   114     9
  110   108   111   112     9
  110   108   111   113     9
  110   108   111   114     9
  108   111   114   115     9
  108   111   114   116     9
  108   111   114   117     9
  112   111   114   115     9
  112   111   114   116     9
  112   111   114   117     9
  113   111   114   115     9
  113   111   114   116     9
  113   111   114   117     9
  111   114   117   118     9
  111   114   117   119     9
  111   114   117   120     9
  115   114   117   118     9
  115   114   117   119     9
  115   114   117   120     9
  116   114   117   118     9
  116   114   117   119     9
  116   114   117   120     9
  114   117   120   121     9
  114   117   120   122     9
  114   117   120   123     9
  118   117   120   121     9
  118   117   120   122     9
  118   117   120   123     9
  119   117   120   121     9
  119   117   120   122     9
  119   117   120   123     9

#ifdef POSRES
[ position_restraints ]
   11     1     0.0             0.0            POSRES_FC_LIPID
#endif

#ifdef DIHRES
[ dihedral_restraints ]
   16    28    19    21     1   -120.0      2.5       DIHRES_FC
#endif
