;;
;; Generated by CHARMM-GUI FF-Converter
;;
;; Correspondance:
;; jul316@lehigh.edu or wonpil@lehigh.edu
;;
;; GROMACS topology file for DSDMAH
;;


[ moleculetype ]
; name	nrexcl
DSDMAH	     3

[ atoms ]
; nr	type	resnr	residu	atom	cgnr	charge	mass
     1      NG3P1     89   DSDMAH     N1      1    -0.565000    14.0070   ; qtot -0.565
     2       HGP2     89   DSDMAH    HN4      2     0.320000     1.0080   ; qtot -0.245
     3      CG334     89   DSDMAH    CN1      3     0.145000    12.0110   ; qtot -0.100
     4       HGA3     89   DSDMAH   HN11      4     0.090000     1.0080   ; qtot -0.010
     5       HGA3     89   DSDMAH   HN12      5     0.090000     1.0080   ; qtot  0.080
     6       HGA3     89   DSDMAH   HN13      6     0.090000     1.0080   ; qtot  0.170
     7      CG334     89   DSDMAH    CN2      7     0.145000    12.0110   ; qtot  0.315
     8       HGA3     89   DSDMAH   HN21      8     0.090000     1.0080   ; qtot  0.405
     9       HGA3     89   DSDMAH   HN22      9     0.090000     1.0080   ; qtot  0.495
    10       HGA3     89   DSDMAH   HN23     10     0.090000     1.0080   ; qtot  0.585
    11      CG324     89   DSDMAH     C1     11     0.235000    12.0110   ; qtot  0.820
    12       HGA2     89   DSDMAH    H11     12     0.090000     1.0080   ; qtot  0.910
    13       HGA2     89   DSDMAH    H12     13     0.090000     1.0080   ; qtot  1.000
    14      CG311     89   DSDMAH     C2     14     0.130000    12.0110   ; qtot  1.130
    15       HGA1     89   DSDMAH     HS     15     0.010000     1.0080   ; qtot  1.140
    16      OG301     89   DSDMAH    O21     16    -0.560000    15.9994   ; qtot  0.580
    17       CTL2     89   DSDMAH    C21     17     0.400000    12.0110   ; qtot  0.980
    18       HAL2     89   DSDMAH    H1R     18     0.010000     1.0080   ; qtot  0.990
    19       HAL2     89   DSDMAH    H1S     19     0.010000     1.0080   ; qtot  1.000
    20       CTL2     89   DSDMAH    C22     20    -0.180000    12.0110   ; qtot  0.820
    21       HAL2     89   DSDMAH    H2R     21     0.090000     1.0080   ; qtot  0.910
    22       HAL2     89   DSDMAH    H2S     22     0.090000     1.0080   ; qtot  1.000
    23      CG321     89   DSDMAH     C3     23     0.080000    12.0110   ; qtot  1.080
    24       HGA2     89   DSDMAH     HX     24     0.020000     1.0080   ; qtot  1.100
    25       HGA2     89   DSDMAH     HY     25     0.020000     1.0080   ; qtot  1.120
    26      OG301     89   DSDMAH    O31     26    -0.560000    15.9994   ; qtot  0.560
    27       CTL2     89   DSDMAH    C31     27     0.400000    12.0110   ; qtot  0.960
    28       HAL2     89   DSDMAH    H1X     28     0.020000     1.0080   ; qtot  0.980
    29       HAL2     89   DSDMAH    H1Y     29     0.020000     1.0080   ; qtot  1.000
    30       CTL2     89   DSDMAH    C32     30    -0.180000    12.0110   ; qtot  0.820
    31       HAL2     89   DSDMAH    H2X     31     0.090000     1.0080   ; qtot  0.910
    32       HAL2     89   DSDMAH    H2Y     32     0.090000     1.0080   ; qtot  1.000
    33       CTL2     89   DSDMAH    C23     33    -0.180000    12.0110   ; qtot  0.820
    34       HAL2     89   DSDMAH    H3R     34     0.090000     1.0080   ; qtot  0.910
    35       HAL2     89   DSDMAH    H3S     35     0.090000     1.0080   ; qtot  1.000
    36       CTL2     89   DSDMAH    C24     36    -0.180000    12.0110   ; qtot  0.820
    37       HAL2     89   DSDMAH    H4R     37     0.090000     1.0080   ; qtot  0.910
    38       HAL2     89   DSDMAH    H4S     38     0.090000     1.0080   ; qtot  1.000
    39       CTL2     89   DSDMAH    C25     39    -0.180000    12.0110   ; qtot  0.820
    40       HAL2     89   DSDMAH    H5R     40     0.090000     1.0080   ; qtot  0.910
    41       HAL2     89   DSDMAH    H5S     41     0.090000     1.0080   ; qtot  1.000
    42       CTL2     89   DSDMAH    C26     42    -0.180000    12.0110   ; qtot  0.820
    43       HAL2     89   DSDMAH    H6R     43     0.090000     1.0080   ; qtot  0.910
    44       HAL2     89   DSDMAH    H6S     44     0.090000     1.0080   ; qtot  1.000
    45       CTL2     89   DSDMAH    C27     45    -0.180000    12.0110   ; qtot  0.820
    46       HAL2     89   DSDMAH    H7R     46     0.090000     1.0080   ; qtot  0.910
    47       HAL2     89   DSDMAH    H7S     47     0.090000     1.0080   ; qtot  1.000
    48       CTL2     89   DSDMAH    C28     48    -0.180000    12.0110   ; qtot  0.820
    49       HAL2     89   DSDMAH    H8R     49     0.090000     1.0080   ; qtot  0.910
    50       HAL2     89   DSDMAH    H8S     50     0.090000     1.0080   ; qtot  1.000
    51       CTL2     89   DSDMAH    C29     51    -0.180000    12.0110   ; qtot  0.820
    52       HAL2     89   DSDMAH    H9R     52     0.090000     1.0080   ; qtot  0.910
    53       HAL2     89   DSDMAH    H9S     53     0.090000     1.0080   ; qtot  1.000
    54       CTL2     89   DSDMAH   C210     54    -0.180000    12.0110   ; qtot  0.820
    55       HAL2     89   DSDMAH   H10R     55     0.090000     1.0080   ; qtot  0.910
    56       HAL2     89   DSDMAH   H10S     56     0.090000     1.0080   ; qtot  1.000
    57       CTL2     89   DSDMAH   C211     57    -0.180000    12.0110   ; qtot  0.820
    58       HAL2     89   DSDMAH   H11R     58     0.090000     1.0080   ; qtot  0.910
    59       HAL2     89   DSDMAH   H11S     59     0.090000     1.0080   ; qtot  1.000
    60       CTL2     89   DSDMAH   C212     60    -0.180000    12.0110   ; qtot  0.820
    61       HAL2     89   DSDMAH   H12R     61     0.090000     1.0080   ; qtot  0.910
    62       HAL2     89   DSDMAH   H12S     62     0.090000     1.0080   ; qtot  1.000
    63       CTL2     89   DSDMAH   C213     63    -0.180000    12.0110   ; qtot  0.820
    64       HAL2     89   DSDMAH   H13R     64     0.090000     1.0080   ; qtot  0.910
    65       HAL2     89   DSDMAH   H13S     65     0.090000     1.0080   ; qtot  1.000
    66       CTL2     89   DSDMAH   C214     66    -0.180000    12.0110   ; qtot  0.820
    67       HAL2     89   DSDMAH   H14R     67     0.090000     1.0080   ; qtot  0.910
    68       HAL2     89   DSDMAH   H14S     68     0.090000     1.0080   ; qtot  1.000
    69       CTL2     89   DSDMAH   C215     69    -0.180000    12.0110   ; qtot  0.820
    70       HAL2     89   DSDMAH   H15R     70     0.090000     1.0080   ; qtot  0.910
    71       HAL2     89   DSDMAH   H15S     71     0.090000     1.0080   ; qtot  1.000
    72       CTL2     89   DSDMAH   C216     72    -0.180000    12.0110   ; qtot  0.820
    73       HAL2     89   DSDMAH   H16R     73     0.090000     1.0080   ; qtot  0.910
    74       HAL2     89   DSDMAH   H16S     74     0.090000     1.0080   ; qtot  1.000
    75       CTL2     89   DSDMAH   C217     75    -0.180000    12.0110   ; qtot  0.820
    76       HAL2     89   DSDMAH   H17R     76     0.090000     1.0080   ; qtot  0.910
    77       HAL2     89   DSDMAH   H17S     77     0.090000     1.0080   ; qtot  1.000
    78       CTL3     89   DSDMAH   C218     78    -0.270000    12.0110   ; qtot  0.730
    79       HAL3     89   DSDMAH   H18R     79     0.090000     1.0080   ; qtot  0.820
    80       HAL3     89   DSDMAH   H18S     80     0.090000     1.0080   ; qtot  0.910
    81       HAL3     89   DSDMAH   H18T     81     0.090000     1.0080   ; qtot  1.000
    82       CTL2     89   DSDMAH    C33     82    -0.180000    12.0110   ; qtot  0.820
    83       HAL2     89   DSDMAH    H3X     83     0.090000     1.0080   ; qtot  0.910
    84       HAL2     89   DSDMAH    H3Y     84     0.090000     1.0080   ; qtot  1.000
    85       CTL2     89   DSDMAH    C34     85    -0.180000    12.0110   ; qtot  0.820
    86       HAL2     89   DSDMAH    H4X     86     0.090000     1.0080   ; qtot  0.910
    87       HAL2     89   DSDMAH    H4Y     87     0.090000     1.0080   ; qtot  1.000
    88       CTL2     89   DSDMAH    C35     88    -0.180000    12.0110   ; qtot  0.820
    89       HAL2     89   DSDMAH    H5X     89     0.090000     1.0080   ; qtot  0.910
    90       HAL2     89   DSDMAH    H5Y     90     0.090000     1.0080   ; qtot  1.000
    91       CTL2     89   DSDMAH    C36     91    -0.180000    12.0110   ; qtot  0.820
    92       HAL2     89   DSDMAH    H6X     92     0.090000     1.0080   ; qtot  0.910
    93       HAL2     89   DSDMAH    H6Y     93     0.090000     1.0080   ; qtot  1.000
    94       CTL2     89   DSDMAH    C37     94    -0.180000    12.0110   ; qtot  0.820
    95       HAL2     89   DSDMAH    H7X     95     0.090000     1.0080   ; qtot  0.910
    96       HAL2     89   DSDMAH    H7Y     96     0.090000     1.0080   ; qtot  1.000
    97       CTL2     89   DSDMAH    C38     97    -0.180000    12.0110   ; qtot  0.820
    98       HAL2     89   DSDMAH    H8X     98     0.090000     1.0080   ; qtot  0.910
    99       HAL2     89   DSDMAH    H8Y     99     0.090000     1.0080   ; qtot  1.000
   100       CTL2     89   DSDMAH    C39    100    -0.180000    12.0110   ; qtot  0.820
   101       HAL2     89   DSDMAH    H9X    101     0.090000     1.0080   ; qtot  0.910
   102       HAL2     89   DSDMAH    H9Y    102     0.090000     1.0080   ; qtot  1.000
   103       CTL2     89   DSDMAH   C310    103    -0.180000    12.0110   ; qtot  0.820
   104       HAL2     89   DSDMAH   H10X    104     0.090000     1.0080   ; qtot  0.910
   105       HAL2     89   DSDMAH   H10Y    105     0.090000     1.0080   ; qtot  1.000
   106       CTL2     89   DSDMAH   C311    106    -0.180000    12.0110   ; qtot  0.820
   107       HAL2     89   DSDMAH   H11X    107     0.090000     1.0080   ; qtot  0.910
   108       HAL2     89   DSDMAH   H11Y    108     0.090000     1.0080   ; qtot  1.000
   109       CTL2     89   DSDMAH   C312    109    -0.180000    12.0110   ; qtot  0.820
   110       HAL2     89   DSDMAH   H12X    110     0.090000     1.0080   ; qtot  0.910
   111       HAL2     89   DSDMAH   H12Y    111     0.090000     1.0080   ; qtot  1.000
   112       CTL2     89   DSDMAH   C313    112    -0.180000    12.0110   ; qtot  0.820
   113       HAL2     89   DSDMAH   H13X    113     0.090000     1.0080   ; qtot  0.910
   114       HAL2     89   DSDMAH   H13Y    114     0.090000     1.0080   ; qtot  1.000
   115       CTL2     89   DSDMAH   C314    115    -0.180000    12.0110   ; qtot  0.820
   116       HAL2     89   DSDMAH   H14X    116     0.090000     1.0080   ; qtot  0.910
   117       HAL2     89   DSDMAH   H14Y    117     0.090000     1.0080   ; qtot  1.000
   118       CTL2     89   DSDMAH   C315    118    -0.180000    12.0110   ; qtot  0.820
   119       HAL2     89   DSDMAH   H15X    119     0.090000     1.0080   ; qtot  0.910
   120       HAL2     89   DSDMAH   H15Y    120     0.090000     1.0080   ; qtot  1.000
   121       CTL2     89   DSDMAH   C316    121    -0.180000    12.0110   ; qtot  0.820
   122       HAL2     89   DSDMAH   H16X    122     0.090000     1.0080   ; qtot  0.910
   123       HAL2     89   DSDMAH   H16Y    123     0.090000     1.0080   ; qtot  1.000
   124       CTL2     89   DSDMAH   C317    124    -0.180000    12.0110   ; qtot  0.820
   125       HAL2     89   DSDMAH   H17X    125     0.090000     1.0080   ; qtot  0.910
   126       HAL2     89   DSDMAH   H17Y    126     0.090000     1.0080   ; qtot  1.000
   127       CTL3     89   DSDMAH   C318    127    -0.270000    12.0110   ; qtot  0.730
   128       HAL3     89   DSDMAH   H18X    128     0.090000     1.0080   ; qtot  0.820
   129       HAL3     89   DSDMAH   H18Y    129     0.090000     1.0080   ; qtot  0.910
   130       HAL3     89   DSDMAH   H18Z    130     0.090000     1.0080   ; qtot  1.000

[ bonds ]
; ai	aj	funct	b0	Kb
    1     2     1
    1     3     1
    1     7     1
    1    11     1
    3     4     1
    3     5     1
    3     6     1
    7     8     1
    7     9     1
    7    10     1
   11    12     1
   11    13     1
   11    14     1
   14    15     1
   14    16     1
   14    23     1
   16    17     1
   17    18     1
   17    19     1
   17    20     1
   20    21     1
   20    22     1
   20    33     1
   23    24     1
   23    25     1
   23    26     1
   26    27     1
   27    28     1
   27    29     1
   27    30     1
   30    31     1
   30    32     1
   30    82     1
   33    34     1
   33    35     1
   33    36     1
   36    37     1
   36    38     1
   36    39     1
   39    40     1
   39    41     1
   39    42     1
   42    43     1
   42    44     1
   42    45     1
   45    46     1
   45    47     1
   45    48     1
   48    49     1
   48    50     1
   48    51     1
   51    52     1
   51    53     1
   51    54     1
   54    55     1
   54    56     1
   54    57     1
   57    58     1
   57    59     1
   57    60     1
   60    61     1
   60    62     1
   60    63     1
   63    64     1
   63    65     1
   63    66     1
   66    67     1
   66    68     1
   66    69     1
   69    70     1
   69    71     1
   69    72     1
   72    73     1
   72    74     1
   72    75     1
   75    76     1
   75    77     1
   75    78     1
   78    79     1
   78    80     1
   78    81     1
   82    83     1
   82    84     1
   82    85     1
   85    86     1
   85    87     1
   85    88     1
   88    89     1
   88    90     1
   88    91     1
   91    92     1
   91    93     1
   91    94     1
   94    95     1
   94    96     1
   94    97     1
   97    98     1
   97    99     1
   97   100     1
  100   101     1
  100   102     1
  100   103     1
  103   104     1
  103   105     1
  103   106     1
  106   107     1
  106   108     1
  106   109     1
  109   110     1
  109   111     1
  109   112     1
  112   113     1
  112   114     1
  112   115     1
  115   116     1
  115   117     1
  115   118     1
  118   119     1
  118   120     1
  118   121     1
  121   122     1
  121   123     1
  121   124     1
  124   125     1
  124   126     1
  124   127     1
  127   128     1
  127   129     1
  127   130     1

[ pairs ]
; ai	aj	funct	c6	c12 or
; ai	aj	funct	fudgeQQ	q1	q2	c6	c12
    1    15     1
    1    16     1
    1    23     1
    2     4     1
    2     5     1
    2     6     1
    2     8     1
    2     9     1
    2    10     1
    2    12     1
    2    13     1
    2    14     1
    3     8     1
    3     9     1
    3    10     1
    3    12     1
    3    13     1
    3    14     1
    4     7     1
    4    11     1
    5     7     1
    5    11     1
    6     7     1
    6    11     1
    7    12     1
    7    13     1
    7    14     1
    8    11     1
    9    11     1
   10    11     1
   11    17     1
   11    24     1
   11    25     1
   11    26     1
   12    15     1
   12    16     1
   12    23     1
   13    15     1
   13    16     1
   13    23     1
   14    18     1
   14    19     1
   14    20     1
   14    27     1
   15    17     1
   15    24     1
   15    25     1
   15    26     1
   16    21     1
   16    22     1
   16    24     1
   16    25     1
   16    26     1
   16    33     1
   17    23     1
   17    34     1
   17    35     1
   17    36     1
   18    21     1
   18    22     1
   18    33     1
   19    21     1
   19    22     1
   19    33     1
   20    37     1
   20    38     1
   20    39     1
   21    34     1
   21    35     1
   21    36     1
   22    34     1
   22    35     1
   22    36     1
   23    28     1
   23    29     1
   23    30     1
   24    27     1
   25    27     1
   26    31     1
   26    32     1
   26    82     1
   27    83     1
   27    84     1
   27    85     1
   28    31     1
   28    32     1
   28    82     1
   29    31     1
   29    32     1
   29    82     1
   30    86     1
   30    87     1
   30    88     1
   31    83     1
   31    84     1
   31    85     1
   32    83     1
   32    84     1
   32    85     1
   33    40     1
   33    41     1
   33    42     1
   34    37     1
   34    38     1
   34    39     1
   35    37     1
   35    38     1
   35    39     1
   36    43     1
   36    44     1
   36    45     1
   37    40     1
   37    41     1
   37    42     1
   38    40     1
   38    41     1
   38    42     1
   39    46     1
   39    47     1
   39    48     1
   40    43     1
   40    44     1
   40    45     1
   41    43     1
   41    44     1
   41    45     1
   42    49     1
   42    50     1
   42    51     1
   43    46     1
   43    47     1
   43    48     1
   44    46     1
   44    47     1
   44    48     1
   45    52     1
   45    53     1
   45    54     1
   46    49     1
   46    50     1
   46    51     1
   47    49     1
   47    50     1
   47    51     1
   48    55     1
   48    56     1
   48    57     1
   49    52     1
   49    53     1
   49    54     1
   50    52     1
   50    53     1
   50    54     1
   51    58     1
   51    59     1
   51    60     1
   52    55     1
   52    56     1
   52    57     1
   53    55     1
   53    56     1
   53    57     1
   54    61     1
   54    62     1
   54    63     1
   55    58     1
   55    59     1
   55    60     1
   56    58     1
   56    59     1
   56    60     1
   57    64     1
   57    65     1
   57    66     1
   58    61     1
   58    62     1
   58    63     1
   59    61     1
   59    62     1
   59    63     1
   60    67     1
   60    68     1
   60    69     1
   61    64     1
   61    65     1
   61    66     1
   62    64     1
   62    65     1
   62    66     1
   63    70     1
   63    71     1
   63    72     1
   64    67     1
   64    68     1
   64    69     1
   65    67     1
   65    68     1
   65    69     1
   66    73     1
   66    74     1
   66    75     1
   67    70     1
   67    71     1
   67    72     1
   68    70     1
   68    71     1
   68    72     1
   69    76     1
   69    77     1
   69    78     1
   70    73     1
   70    74     1
   70    75     1
   71    73     1
   71    74     1
   71    75     1
   72    79     1
   72    80     1
   72    81     1
   73    76     1
   73    77     1
   73    78     1
   74    76     1
   74    77     1
   74    78     1
   76    79     1
   76    80     1
   76    81     1
   77    79     1
   77    80     1
   77    81     1
   82    89     1
   82    90     1
   82    91     1
   83    86     1
   83    87     1
   83    88     1
   84    86     1
   84    87     1
   84    88     1
   85    92     1
   85    93     1
   85    94     1
   86    89     1
   86    90     1
   86    91     1
   87    89     1
   87    90     1
   87    91     1
   88    95     1
   88    96     1
   88    97     1
   89    92     1
   89    93     1
   89    94     1
   90    92     1
   90    93     1
   90    94     1
   91    98     1
   91    99     1
   91   100     1
   92    95     1
   92    96     1
   92    97     1
   93    95     1
   93    96     1
   93    97     1
   94   101     1
   94   102     1
   94   103     1
   95    98     1
   95    99     1
   95   100     1
   96    98     1
   96    99     1
   96   100     1
   97   104     1
   97   105     1
   97   106     1
   98   101     1
   98   102     1
   98   103     1
   99   101     1
   99   102     1
   99   103     1
  100   107     1
  100   108     1
  100   109     1
  101   104     1
  101   105     1
  101   106     1
  102   104     1
  102   105     1
  102   106     1
  103   110     1
  103   111     1
  103   112     1
  104   107     1
  104   108     1
  104   109     1
  105   107     1
  105   108     1
  105   109     1
  106   113     1
  106   114     1
  106   115     1
  107   110     1
  107   111     1
  107   112     1
  108   110     1
  108   111     1
  108   112     1
  109   116     1
  109   117     1
  109   118     1
  110   113     1
  110   114     1
  110   115     1
  111   113     1
  111   114     1
  111   115     1
  112   119     1
  112   120     1
  112   121     1
  113   116     1
  113   117     1
  113   118     1
  114   116     1
  114   117     1
  114   118     1
  115   122     1
  115   123     1
  115   124     1
  116   119     1
  116   120     1
  116   121     1
  117   119     1
  117   120     1
  117   121     1
  118   125     1
  118   126     1
  118   127     1
  119   122     1
  119   123     1
  119   124     1
  120   122     1
  120   123     1
  120   124     1
  121   128     1
  121   129     1
  121   130     1
  122   125     1
  122   126     1
  122   127     1
  123   125     1
  123   126     1
  123   127     1
  125   128     1
  125   129     1
  125   130     1
  126   128     1
  126   129     1
  126   130     1

[ angles ] 
; ai	aj	ak	funct	th0	cth	S0	Kub
    2     1     3     5
    2     1     7     5
    2     1    11     5
    3     1     7     5
    3     1    11     5
    7     1    11     5
    1     3     4     5
    1     3     5     5
    1     3     6     5
    4     3     5     5
    4     3     6     5
    5     3     6     5
    1     7     8     5
    1     7     9     5
    1     7    10     5
    8     7     9     5
    8     7    10     5
    9     7    10     5
    1    11    12     5
    1    11    13     5
    1    11    14     5
   12    11    13     5
   12    11    14     5
   13    11    14     5
   11    14    15     5
   11    14    16     5
   11    14    23     5
   15    14    16     5
   15    14    23     5
   16    14    23     5
   14    16    17     5
   16    17    18     5
   16    17    19     5
   16    17    20     5
   18    17    19     5
   18    17    20     5
   19    17    20     5
   17    20    21     5
   17    20    22     5
   17    20    33     5
   21    20    22     5
   21    20    33     5
   22    20    33     5
   14    23    24     5
   14    23    25     5
   14    23    26     5
   24    23    25     5
   24    23    26     5
   25    23    26     5
   23    26    27     5
   26    27    28     5
   26    27    29     5
   26    27    30     5
   28    27    29     5
   28    27    30     5
   29    27    30     5
   27    30    31     5
   27    30    32     5
   27    30    82     5
   31    30    32     5
   31    30    82     5
   32    30    82     5
   20    33    34     5
   20    33    35     5
   20    33    36     5
   34    33    35     5
   34    33    36     5
   35    33    36     5
   33    36    37     5
   33    36    38     5
   33    36    39     5
   37    36    38     5
   37    36    39     5
   38    36    39     5
   36    39    40     5
   36    39    41     5
   36    39    42     5
   40    39    41     5
   40    39    42     5
   41    39    42     5
   39    42    43     5
   39    42    44     5
   39    42    45     5
   43    42    44     5
   43    42    45     5
   44    42    45     5
   42    45    46     5
   42    45    47     5
   42    45    48     5
   46    45    47     5
   46    45    48     5
   47    45    48     5
   45    48    49     5
   45    48    50     5
   45    48    51     5
   49    48    50     5
   49    48    51     5
   50    48    51     5
   48    51    52     5
   48    51    53     5
   48    51    54     5
   52    51    53     5
   52    51    54     5
   53    51    54     5
   51    54    55     5
   51    54    56     5
   51    54    57     5
   55    54    56     5
   55    54    57     5
   56    54    57     5
   54    57    58     5
   54    57    59     5
   54    57    60     5
   58    57    59     5
   58    57    60     5
   59    57    60     5
   57    60    61     5
   57    60    62     5
   57    60    63     5
   61    60    62     5
   61    60    63     5
   62    60    63     5
   60    63    64     5
   60    63    65     5
   60    63    66     5
   64    63    65     5
   64    63    66     5
   65    63    66     5
   63    66    67     5
   63    66    68     5
   63    66    69     5
   67    66    68     5
   67    66    69     5
   68    66    69     5
   66    69    70     5
   66    69    71     5
   66    69    72     5
   70    69    71     5
   70    69    72     5
   71    69    72     5
   69    72    73     5
   69    72    74     5
   69    72    75     5
   73    72    74     5
   73    72    75     5
   74    72    75     5
   72    75    76     5
   72    75    77     5
   72    75    78     5
   76    75    77     5
   76    75    78     5
   77    75    78     5
   75    78    79     5
   75    78    80     5
   75    78    81     5
   79    78    80     5
   79    78    81     5
   80    78    81     5
   30    82    83     5
   30    82    84     5
   30    82    85     5
   83    82    84     5
   83    82    85     5
   84    82    85     5
   82    85    86     5
   82    85    87     5
   82    85    88     5
   86    85    87     5
   86    85    88     5
   87    85    88     5
   85    88    89     5
   85    88    90     5
   85    88    91     5
   89    88    90     5
   89    88    91     5
   90    88    91     5
   88    91    92     5
   88    91    93     5
   88    91    94     5
   92    91    93     5
   92    91    94     5
   93    91    94     5
   91    94    95     5
   91    94    96     5
   91    94    97     5
   95    94    96     5
   95    94    97     5
   96    94    97     5
   94    97    98     5
   94    97    99     5
   94    97   100     5
   98    97    99     5
   98    97   100     5
   99    97   100     5
   97   100   101     5
   97   100   102     5
   97   100   103     5
  101   100   102     5
  101   100   103     5
  102   100   103     5
  100   103   104     5
  100   103   105     5
  100   103   106     5
  104   103   105     5
  104   103   106     5
  105   103   106     5
  103   106   107     5
  103   106   108     5
  103   106   109     5
  107   106   108     5
  107   106   109     5
  108   106   109     5
  106   109   110     5
  106   109   111     5
  106   109   112     5
  110   109   111     5
  110   109   112     5
  111   109   112     5
  109   112   113     5
  109   112   114     5
  109   112   115     5
  113   112   114     5
  113   112   115     5
  114   112   115     5
  112   115   116     5
  112   115   117     5
  112   115   118     5
  116   115   117     5
  116   115   118     5
  117   115   118     5
  115   118   119     5
  115   118   120     5
  115   118   121     5
  119   118   120     5
  119   118   121     5
  120   118   121     5
  118   121   122     5
  118   121   123     5
  118   121   124     5
  122   121   123     5
  122   121   124     5
  123   121   124     5
  121   124   125     5
  121   124   126     5
  121   124   127     5
  125   124   126     5
  125   124   127     5
  126   124   127     5
  124   127   128     5
  124   127   129     5
  124   127   130     5
  128   127   129     5
  128   127   130     5
  129   127   130     5

[ dihedrals ]
; ai	aj	ak	al	funct	phi0	cp	mult
    2     1     3     4     9
    2     1     3     5     9
    2     1     3     6     9
    2     1     7     8     9
    2     1     7     9     9
    2     1     7    10     9
    3     1     7     8     9
    3     1     7     9     9
    3     1     7    10     9
    2     1    11    12     9
    2     1    11    13     9
    2     1    11    14     9
    3     1    11    12     9
    3     1    11    13     9
    3     1    11    14     9
    7     1    11    12     9
    7     1    11    13     9
    7     1    11    14     9
    4     3     1     7     9
    4     3     1    11     9
    5     3     1     7     9
    5     3     1    11     9
    6     3     1     7     9
    6     3     1    11     9
    8     7     1    11     9
    9     7     1    11     9
   10     7     1    11     9
    1    11    14    15     9
    1    11    14    16     9
    1    11    14    23     9
   12    11    14    15     9
   12    11    14    16     9
   12    11    14    23     9
   13    11    14    15     9
   13    11    14    16     9
   13    11    14    23     9
   11    14    16    17     9
   15    14    16    17     9
   11    14    23    24     9
   11    14    23    25     9
   11    14    23    26     9
   15    14    23    24     9
   15    14    23    25     9
   15    14    23    26     9
   16    14    23    24     9
   16    14    23    25     9
   16    14    23    26     9
   17    16    14    23     9
   14    16    17    18     9
   14    16    17    19     9
   14    16    17    20     9
   16    17    20    21     9
   16    17    20    22     9
   16    17    20    33     9
   18    17    20    21     9
   18    17    20    22     9
   18    17    20    33     9
   19    17    20    21     9
   19    17    20    22     9
   19    17    20    33     9
   17    20    33    34     9
   17    20    33    35     9
   17    20    33    36     9
   21    20    33    34     9
   21    20    33    35     9
   21    20    33    36     9
   22    20    33    34     9
   22    20    33    35     9
   22    20    33    36     9
   14    23    26    27     9
   24    23    26    27     9
   25    23    26    27     9
   23    26    27    28     9
   23    26    27    29     9
   23    26    27    30     9
   26    27    30    31     9
   26    27    30    32     9
   26    27    30    82     9
   28    27    30    31     9
   28    27    30    32     9
   28    27    30    82     9
   29    27    30    31     9
   29    27    30    32     9
   29    27    30    82     9
   27    30    82    83     9
   27    30    82    84     9
   27    30    82    85     9
   31    30    82    83     9
   31    30    82    84     9
   31    30    82    85     9
   32    30    82    83     9
   32    30    82    84     9
   32    30    82    85     9
   20    33    36    37     9
   20    33    36    38     9
   20    33    36    39     9
   34    33    36    37     9
   34    33    36    38     9
   34    33    36    39     9
   35    33    36    37     9
   35    33    36    38     9
   35    33    36    39     9
   33    36    39    40     9
   33    36    39    41     9
   33    36    39    42     9
   37    36    39    40     9
   37    36    39    41     9
   37    36    39    42     9
   38    36    39    40     9
   38    36    39    41     9
   38    36    39    42     9
   36    39    42    43     9
   36    39    42    44     9
   36    39    42    45     9
   40    39    42    43     9
   40    39    42    44     9
   40    39    42    45     9
   41    39    42    43     9
   41    39    42    44     9
   41    39    42    45     9
   39    42    45    46     9
   39    42    45    47     9
   39    42    45    48     9
   43    42    45    46     9
   43    42    45    47     9
   43    42    45    48     9
   44    42    45    46     9
   44    42    45    47     9
   44    42    45    48     9
   42    45    48    49     9
   42    45    48    50     9
   42    45    48    51     9
   46    45    48    49     9
   46    45    48    50     9
   46    45    48    51     9
   47    45    48    49     9
   47    45    48    50     9
   47    45    48    51     9
   45    48    51    52     9
   45    48    51    53     9
   45    48    51    54     9
   49    48    51    52     9
   49    48    51    53     9
   49    48    51    54     9
   50    48    51    52     9
   50    48    51    53     9
   50    48    51    54     9
   48    51    54    55     9
   48    51    54    56     9
   48    51    54    57     9
   52    51    54    55     9
   52    51    54    56     9
   52    51    54    57     9
   53    51    54    55     9
   53    51    54    56     9
   53    51    54    57     9
   51    54    57    58     9
   51    54    57    59     9
   51    54    57    60     9
   55    54    57    58     9
   55    54    57    59     9
   55    54    57    60     9
   56    54    57    58     9
   56    54    57    59     9
   56    54    57    60     9
   54    57    60    61     9
   54    57    60    62     9
   54    57    60    63     9
   58    57    60    61     9
   58    57    60    62     9
   58    57    60    63     9
   59    57    60    61     9
   59    57    60    62     9
   59    57    60    63     9
   57    60    63    64     9
   57    60    63    65     9
   57    60    63    66     9
   61    60    63    64     9
   61    60    63    65     9
   61    60    63    66     9
   62    60    63    64     9
   62    60    63    65     9
   62    60    63    66     9
   60    63    66    67     9
   60    63    66    68     9
   60    63    66    69     9
   64    63    66    67     9
   64    63    66    68     9
   64    63    66    69     9
   65    63    66    67     9
   65    63    66    68     9
   65    63    66    69     9
   63    66    69    70     9
   63    66    69    71     9
   63    66    69    72     9
   67    66    69    70     9
   67    66    69    71     9
   67    66    69    72     9
   68    66    69    70     9
   68    66    69    71     9
   68    66    69    72     9
   66    69    72    73     9
   66    69    72    74     9
   66    69    72    75     9
   70    69    72    73     9
   70    69    72    74     9
   70    69    72    75     9
   71    69    72    73     9
   71    69    72    74     9
   71    69    72    75     9
   69    72    75    76     9
   69    72    75    77     9
   69    72    75    78     9
   73    72    75    76     9
   73    72    75    77     9
   73    72    75    78     9
   74    72    75    76     9
   74    72    75    77     9
   74    72    75    78     9
   72    75    78    79     9
   72    75    78    80     9
   72    75    78    81     9
   76    75    78    79     9
   76    75    78    80     9
   76    75    78    81     9
   77    75    78    79     9
   77    75    78    80     9
   77    75    78    81     9
   30    82    85    86     9
   30    82    85    87     9
   30    82    85    88     9
   83    82    85    86     9
   83    82    85    87     9
   83    82    85    88     9
   84    82    85    86     9
   84    82    85    87     9
   84    82    85    88     9
   82    85    88    89     9
   82    85    88    90     9
   82    85    88    91     9
   86    85    88    89     9
   86    85    88    90     9
   86    85    88    91     9
   87    85    88    89     9
   87    85    88    90     9
   87    85    88    91     9
   85    88    91    92     9
   85    88    91    93     9
   85    88    91    94     9
   89    88    91    92     9
   89    88    91    93     9
   89    88    91    94     9
   90    88    91    92     9
   90    88    91    93     9
   90    88    91    94     9
   88    91    94    95     9
   88    91    94    96     9
   88    91    94    97     9
   92    91    94    95     9
   92    91    94    96     9
   92    91    94    97     9
   93    91    94    95     9
   93    91    94    96     9
   93    91    94    97     9
   91    94    97    98     9
   91    94    97    99     9
   91    94    97   100     9
   95    94    97    98     9
   95    94    97    99     9
   95    94    97   100     9
   96    94    97    98     9
   96    94    97    99     9
   96    94    97   100     9
   94    97   100   101     9
   94    97   100   102     9
   94    97   100   103     9
   98    97   100   101     9
   98    97   100   102     9
   98    97   100   103     9
   99    97   100   101     9
   99    97   100   102     9
   99    97   100   103     9
   97   100   103   104     9
   97   100   103   105     9
   97   100   103   106     9
  101   100   103   104     9
  101   100   103   105     9
  101   100   103   106     9
  102   100   103   104     9
  102   100   103   105     9
  102   100   103   106     9
  100   103   106   107     9
  100   103   106   108     9
  100   103   106   109     9
  104   103   106   107     9
  104   103   106   108     9
  104   103   106   109     9
  105   103   106   107     9
  105   103   106   108     9
  105   103   106   109     9
  103   106   109   110     9
  103   106   109   111     9
  103   106   109   112     9
  107   106   109   110     9
  107   106   109   111     9
  107   106   109   112     9
  108   106   109   110     9
  108   106   109   111     9
  108   106   109   112     9
  106   109   112   113     9
  106   109   112   114     9
  106   109   112   115     9
  110   109   112   113     9
  110   109   112   114     9
  110   109   112   115     9
  111   109   112   113     9
  111   109   112   114     9
  111   109   112   115     9
  109   112   115   116     9
  109   112   115   117     9
  109   112   115   118     9
  113   112   115   116     9
  113   112   115   117     9
  113   112   115   118     9
  114   112   115   116     9
  114   112   115   117     9
  114   112   115   118     9
  112   115   118   119     9
  112   115   118   120     9
  112   115   118   121     9
  116   115   118   119     9
  116   115   118   120     9
  116   115   118   121     9
  117   115   118   119     9
  117   115   118   120     9
  117   115   118   121     9
  115   118   121   122     9
  115   118   121   123     9
  115   118   121   124     9
  119   118   121   122     9
  119   118   121   123     9
  119   118   121   124     9
  120   118   121   122     9
  120   118   121   123     9
  120   118   121   124     9
  118   121   124   125     9
  118   121   124   126     9
  118   121   124   127     9
  122   121   124   125     9
  122   121   124   126     9
  122   121   124   127     9
  123   121   124   125     9
  123   121   124   126     9
  123   121   124   127     9
  121   124   127   128     9
  121   124   127   129     9
  121   124   127   130     9
  125   124   127   128     9
  125   124   127   129     9
  125   124   127   130     9
  126   124   127   128     9
  126   124   127   129     9
  126   124   127   130     9

#ifdef POSRES
[ position_restraints ]
    1     1     0.0             0.0            POSRES_FC_LIPID
#endif

#ifdef DIHRES
[ dihedral_restraints ]
   11    23    14    16     1   -120.0      2.5       DIHRES_FC
#endif
