;;
;; Generated by CHARMM-GUI FF-Converter
;;
;; Correspondance:
;; jul316@lehigh.edu or wonpil@lehigh.edu
;;
;; GROMACS topology file for DTGL
;;


[ moleculetype ]
; name	nrexcl
DTGL	     3

[ atoms ]
; nr	type	resnr	residu	atom	cgnr	charge	mass
     1       CTL2    205     DTGL     C1      1     0.050000    12.0110   ; qtot  0.050
     2       HAL2    205     DTGL     HA      2     0.090000     1.0080   ; qtot  0.140
     3       HAL2    205     DTGL     HB      3     0.090000     1.0080   ; qtot  0.230
     4        OHL    205     DTGL    O11      4    -0.650000    15.9994   ; qtot -0.420
     5        HOL    205     DTGL    HO1      5     0.420000     1.0080   ; qtot -0.000
     6       CTL1    205     DTGL     C2      6     0.170000    12.0110   ; qtot  0.170
     7       HAL1    205     DTGL     HS      7     0.090000     1.0080   ; qtot  0.260
     8        OSL    205     DTGL    O21      8    -0.490000    15.9994   ; qtot -0.230
     9         CL    205     DTGL    C21      9     0.900000    12.0110   ; qtot  0.670
    10        OBL    205     DTGL    O22     10    -0.630000    15.9994   ; qtot  0.040
    11       CTL2    205     DTGL    C22     11    -0.220000    12.0110   ; qtot -0.180
    12       HAL2    205     DTGL    H2R     12     0.090000     1.0080   ; qtot -0.090
    13       HAL2    205     DTGL    H2S     13     0.090000     1.0080   ; qtot -0.000
    14       CTL2    205     DTGL     C3     14     0.080000    12.0110   ; qtot  0.080
    15       HAL2    205     DTGL     HX     15     0.090000     1.0080   ; qtot  0.170
    16       HAL2    205     DTGL     HY     16     0.090000     1.0080   ; qtot  0.260
    17        OSL    205     DTGL    O31     17    -0.490000    15.9994   ; qtot -0.230
    18         CL    205     DTGL    C31     18     0.900000    12.0110   ; qtot  0.670
    19        OBL    205     DTGL    O32     19    -0.630000    15.9994   ; qtot  0.040
    20       CTL2    205     DTGL    C32     20    -0.220000    12.0110   ; qtot -0.180
    21       HAL2    205     DTGL    H2X     21     0.090000     1.0080   ; qtot -0.090
    22       HAL2    205     DTGL    H2Y     22     0.090000     1.0080   ; qtot -0.000
    23       CTL2    205     DTGL    C23     23    -0.180000    12.0110   ; qtot -0.180
    24       HAL2    205     DTGL    H3R     24     0.090000     1.0080   ; qtot -0.090
    25       HAL2    205     DTGL    H3S     25     0.090000     1.0080   ; qtot -0.000
    26       CTL2    205     DTGL    C24     26    -0.180000    12.0110   ; qtot -0.180
    27       HAL2    205     DTGL    H4R     27     0.090000     1.0080   ; qtot -0.090
    28       HAL2    205     DTGL    H4S     28     0.090000     1.0080   ; qtot -0.000
    29       CTL2    205     DTGL    C25     29    -0.180000    12.0110   ; qtot -0.180
    30       HAL2    205     DTGL    H5R     30     0.090000     1.0080   ; qtot -0.090
    31       HAL2    205     DTGL    H5S     31     0.090000     1.0080   ; qtot -0.000
    32       CTL2    205     DTGL    C26     32    -0.180000    12.0110   ; qtot -0.180
    33       HAL2    205     DTGL    H6R     33     0.090000     1.0080   ; qtot -0.090
    34       HAL2    205     DTGL    H6S     34     0.090000     1.0080   ; qtot -0.000
    35       CEL1    205     DTGL    C27     35    -0.150000    12.0110   ; qtot -0.150
    36       HEL1    205     DTGL    H7R     36     0.150000     1.0080   ; qtot -0.000
    37       CEL1    205     DTGL    C28     37    -0.150000    12.0110   ; qtot -0.150
    38       HEL1    205     DTGL    H8R     38     0.150000     1.0080   ; qtot -0.000
    39       CTL2    205     DTGL    C29     39    -0.180000    12.0110   ; qtot -0.180
    40       HAL2    205     DTGL    H9R     40     0.090000     1.0080   ; qtot -0.090
    41       HAL2    205     DTGL    H9S     41     0.090000     1.0080   ; qtot -0.000
    42       CEL1    205     DTGL   C210     42    -0.150000    12.0110   ; qtot -0.150
    43       HEL1    205     DTGL   H10R     43     0.150000     1.0080   ; qtot -0.000
    44       CEL1    205     DTGL   C211     44    -0.150000    12.0110   ; qtot -0.150
    45       HEL1    205     DTGL   H11R     45     0.150000     1.0080   ; qtot -0.000
    46       CTL2    205     DTGL   C212     46    -0.180000    12.0110   ; qtot -0.180
    47       HAL2    205     DTGL   H12R     47     0.090000     1.0080   ; qtot -0.090
    48       HAL2    205     DTGL   H12S     48     0.090000     1.0080   ; qtot -0.000
    49       CEL1    205     DTGL   C213     49    -0.150000    12.0110   ; qtot -0.150
    50       HEL1    205     DTGL   H13R     50     0.150000     1.0080   ; qtot -0.000
    51       CEL1    205     DTGL   C214     51    -0.150000    12.0110   ; qtot -0.150
    52       HEL1    205     DTGL   H14R     52     0.150000     1.0080   ; qtot -0.000
    53       CTL2    205     DTGL   C215     53    -0.180000    12.0110   ; qtot -0.180
    54       HAL2    205     DTGL   H15R     54     0.090000     1.0080   ; qtot -0.090
    55       HAL2    205     DTGL   H15S     55     0.090000     1.0080   ; qtot -0.000
    56       CTL3    205     DTGL   C216     56    -0.270000    12.0110   ; qtot -0.270
    57       HAL3    205     DTGL   H16R     57     0.090000     1.0080   ; qtot -0.180
    58       HAL3    205     DTGL   H16S     58     0.090000     1.0080   ; qtot -0.090
    59       HAL3    205     DTGL   H16T     59     0.090000     1.0080   ; qtot -0.000
    60       CTL2    205     DTGL    C33     60    -0.180000    12.0110   ; qtot -0.180
    61       HAL2    205     DTGL    H3X     61     0.090000     1.0080   ; qtot -0.090
    62       HAL2    205     DTGL    H3Y     62     0.090000     1.0080   ; qtot -0.000
    63       CTL2    205     DTGL    C34     63    -0.180000    12.0110   ; qtot -0.180
    64       HAL2    205     DTGL    H4X     64     0.090000     1.0080   ; qtot -0.090
    65       HAL2    205     DTGL    H4Y     65     0.090000     1.0080   ; qtot -0.000
    66       CTL2    205     DTGL    C35     66    -0.180000    12.0110   ; qtot -0.180
    67       HAL2    205     DTGL    H5X     67     0.090000     1.0080   ; qtot -0.090
    68       HAL2    205     DTGL    H5Y     68     0.090000     1.0080   ; qtot -0.000
    69       CTL2    205     DTGL    C36     69    -0.180000    12.0110   ; qtot -0.180
    70       HAL2    205     DTGL    H6X     70     0.090000     1.0080   ; qtot -0.090
    71       HAL2    205     DTGL    H6Y     71     0.090000     1.0080   ; qtot -0.000
    72       CEL1    205     DTGL    C37     72    -0.150000    12.0110   ; qtot -0.150
    73       HEL1    205     DTGL    H7X     73     0.150000     1.0080   ; qtot -0.000
    74       CEL1    205     DTGL    C38     74    -0.150000    12.0110   ; qtot -0.150
    75       HEL1    205     DTGL    H8X     75     0.150000     1.0080   ; qtot -0.000
    76       CTL2    205     DTGL    C39     76    -0.180000    12.0110   ; qtot -0.180
    77       HAL2    205     DTGL    H9X     77     0.090000     1.0080   ; qtot -0.090
    78       HAL2    205     DTGL    H9Y     78     0.090000     1.0080   ; qtot -0.000
    79       CEL1    205     DTGL   C310     79    -0.150000    12.0110   ; qtot -0.150
    80       HEL1    205     DTGL   H10X     80     0.150000     1.0080   ; qtot -0.000
    81       CEL1    205     DTGL   C311     81    -0.150000    12.0110   ; qtot -0.150
    82       HEL1    205     DTGL   H11X     82     0.150000     1.0080   ; qtot -0.000
    83       CTL2    205     DTGL   C312     83    -0.180000    12.0110   ; qtot -0.180
    84       HAL2    205     DTGL   H12X     84     0.090000     1.0080   ; qtot -0.090
    85       HAL2    205     DTGL   H12Y     85     0.090000     1.0080   ; qtot -0.000
    86       CEL1    205     DTGL   C313     86    -0.150000    12.0110   ; qtot -0.150
    87       HEL1    205     DTGL   H13X     87     0.150000     1.0080   ; qtot -0.000
    88       CEL1    205     DTGL   C314     88    -0.150000    12.0110   ; qtot -0.150
    89       HEL1    205     DTGL   H14X     89     0.150000     1.0080   ; qtot -0.000
    90       CTL2    205     DTGL   C315     90    -0.180000    12.0110   ; qtot -0.180
    91       HAL2    205     DTGL   H15X     91     0.090000     1.0080   ; qtot -0.090
    92       HAL2    205     DTGL   H15Y     92     0.090000     1.0080   ; qtot -0.000
    93       CTL3    205     DTGL   C316     93    -0.270000    12.0110   ; qtot -0.270
    94       HAL3    205     DTGL   H16X     94     0.090000     1.0080   ; qtot -0.180
    95       HAL3    205     DTGL   H16Y     95     0.090000     1.0080   ; qtot -0.090
    96       HAL3    205     DTGL   H16Z     96     0.090000     1.0080   ; qtot -0.000

[ bonds ]
; ai	aj	funct	b0	Kb
    1     2     1
    1     3     1
    1     4     1
    1     6     1
    4     5     1
    6     7     1
    6     8     1
    6    14     1
    9     8     1
    9    10     1
    9    11     1
   11    12     1
   11    13     1
   11    23     1
   14    15     1
   14    16     1
   14    17     1
   18    17     1
   18    19     1
   18    20     1
   20    21     1
   20    22     1
   20    60     1
   23    24     1
   23    25     1
   23    26     1
   26    27     1
   26    28     1
   26    29     1
   29    30     1
   29    31     1
   29    32     1
   32    33     1
   32    34     1
   32    35     1
   35    36     1
   35    37     1
   37    38     1
   37    39     1
   39    40     1
   39    41     1
   39    42     1
   42    43     1
   42    44     1
   44    45     1
   44    46     1
   46    47     1
   46    48     1
   46    49     1
   49    50     1
   49    51     1
   51    52     1
   51    53     1
   53    54     1
   53    55     1
   53    56     1
   56    57     1
   56    58     1
   56    59     1
   60    61     1
   60    62     1
   60    63     1
   63    64     1
   63    65     1
   63    66     1
   66    67     1
   66    68     1
   66    69     1
   69    70     1
   69    71     1
   69    72     1
   72    73     1
   72    74     1
   74    75     1
   74    76     1
   76    77     1
   76    78     1
   76    79     1
   79    80     1
   79    81     1
   81    82     1
   81    83     1
   83    84     1
   83    85     1
   83    86     1
   86    87     1
   86    88     1
   88    89     1
   88    90     1
   90    91     1
   90    92     1
   90    93     1
   93    94     1
   93    95     1
   93    96     1

[ pairs ]
; ai	aj	funct	c6	c12 or
; ai	aj	funct	fudgeQQ	q1	q2	c6	c12
    1     9     1
    1    15     1
    1    16     1
    1    17     1
    2     5     1
    2     7     1
    2     8     1
    2    14     1
    3     5     1
    3     7     1
    3     8     1
    3    14     1
    4     7     1
    4     8     1
    4    14     1
    5     6     1
    6    10     1
    6    11     1
    6    18     1
    7     9     1
    7    15     1
    7    16     1
    7    17     1
    8    12     1
    8    13     1
    8    15     1
    8    16     1
    8    17     1
    8    23     1
    9    14     1
    9    24     1
    9    25     1
    9    26     1
   10    12     1
   10    13     1
   10    23     1
   11    27     1
   11    28     1
   11    29     1
   12    24     1
   12    25     1
   12    26     1
   13    24     1
   13    25     1
   13    26     1
   14    19     1
   14    20     1
   15    18     1
   16    18     1
   17    21     1
   17    22     1
   17    60     1
   18    61     1
   18    62     1
   18    63     1
   19    21     1
   19    22     1
   19    60     1
   20    64     1
   20    65     1
   20    66     1
   21    61     1
   21    62     1
   21    63     1
   22    61     1
   22    62     1
   22    63     1
   23    30     1
   23    31     1
   23    32     1
   24    27     1
   24    28     1
   24    29     1
   25    27     1
   25    28     1
   25    29     1
   26    33     1
   26    34     1
   26    35     1
   27    30     1
   27    31     1
   27    32     1
   28    30     1
   28    31     1
   28    32     1
   29    36     1
   29    37     1
   30    33     1
   30    34     1
   30    35     1
   31    33     1
   31    34     1
   31    35     1
   32    38     1
   32    39     1
   33    36     1
   33    37     1
   34    36     1
   34    37     1
   35    40     1
   35    41     1
   35    42     1
   36    38     1
   36    39     1
   37    43     1
   37    44     1
   38    40     1
   38    41     1
   38    42     1
   39    45     1
   39    46     1
   40    43     1
   40    44     1
   41    43     1
   41    44     1
   42    47     1
   42    48     1
   42    49     1
   43    45     1
   43    46     1
   44    50     1
   44    51     1
   45    47     1
   45    48     1
   45    49     1
   46    52     1
   46    53     1
   47    50     1
   47    51     1
   48    50     1
   48    51     1
   49    54     1
   49    55     1
   49    56     1
   50    52     1
   50    53     1
   51    57     1
   51    58     1
   51    59     1
   52    54     1
   52    55     1
   52    56     1
   54    57     1
   54    58     1
   54    59     1
   55    57     1
   55    58     1
   55    59     1
   60    67     1
   60    68     1
   60    69     1
   61    64     1
   61    65     1
   61    66     1
   62    64     1
   62    65     1
   62    66     1
   63    70     1
   63    71     1
   63    72     1
   64    67     1
   64    68     1
   64    69     1
   65    67     1
   65    68     1
   65    69     1
   66    73     1
   66    74     1
   67    70     1
   67    71     1
   67    72     1
   68    70     1
   68    71     1
   68    72     1
   69    75     1
   69    76     1
   70    73     1
   70    74     1
   71    73     1
   71    74     1
   72    77     1
   72    78     1
   72    79     1
   73    75     1
   73    76     1
   74    80     1
   74    81     1
   75    77     1
   75    78     1
   75    79     1
   76    82     1
   76    83     1
   77    80     1
   77    81     1
   78    80     1
   78    81     1
   79    84     1
   79    85     1
   79    86     1
   80    82     1
   80    83     1
   81    87     1
   81    88     1
   82    84     1
   82    85     1
   82    86     1
   83    89     1
   83    90     1
   84    87     1
   84    88     1
   85    87     1
   85    88     1
   86    91     1
   86    92     1
   86    93     1
   87    89     1
   87    90     1
   88    94     1
   88    95     1
   88    96     1
   89    91     1
   89    92     1
   89    93     1
   91    94     1
   91    95     1
   91    96     1
   92    94     1
   92    95     1
   92    96     1

[ angles ] 
; ai	aj	ak	funct	th0	cth	S0	Kub
    2     1     3     5
    2     1     4     5
    2     1     6     5
    3     1     4     5
    3     1     6     5
    4     1     6     5
    1     4     5     5
    1     6     7     5
    1     6     8     5
    1     6    14     5
    7     6     8     5
    7     6    14     5
    8     6    14     5
    6     8     9     5
    8     9    10     5
    8     9    11     5
   10     9    11     5
    9    11    12     5
    9    11    13     5
    9    11    23     5
   12    11    13     5
   12    11    23     5
   13    11    23     5
    6    14    15     5
    6    14    16     5
    6    14    17     5
   15    14    16     5
   15    14    17     5
   16    14    17     5
   14    17    18     5
   17    18    19     5
   17    18    20     5
   19    18    20     5
   18    20    21     5
   18    20    22     5
   18    20    60     5
   21    20    22     5
   21    20    60     5
   22    20    60     5
   11    23    24     5
   11    23    25     5
   11    23    26     5
   24    23    25     5
   24    23    26     5
   25    23    26     5
   23    26    27     5
   23    26    28     5
   23    26    29     5
   27    26    28     5
   27    26    29     5
   28    26    29     5
   26    29    30     5
   26    29    31     5
   26    29    32     5
   30    29    31     5
   30    29    32     5
   31    29    32     5
   29    32    33     5
   29    32    34     5
   29    32    35     5
   33    32    34     5
   33    32    35     5
   34    32    35     5
   32    35    36     5
   32    35    37     5
   36    35    37     5
   35    37    38     5
   35    37    39     5
   38    37    39     5
   37    39    40     5
   37    39    41     5
   37    39    42     5
   40    39    41     5
   40    39    42     5
   41    39    42     5
   39    42    43     5
   39    42    44     5
   43    42    44     5
   42    44    45     5
   42    44    46     5
   45    44    46     5
   44    46    47     5
   44    46    48     5
   44    46    49     5
   47    46    48     5
   47    46    49     5
   48    46    49     5
   46    49    50     5
   46    49    51     5
   50    49    51     5
   49    51    52     5
   49    51    53     5
   52    51    53     5
   51    53    54     5
   51    53    55     5
   51    53    56     5
   54    53    55     5
   54    53    56     5
   55    53    56     5
   53    56    57     5
   53    56    58     5
   53    56    59     5
   57    56    58     5
   57    56    59     5
   58    56    59     5
   20    60    61     5
   20    60    62     5
   20    60    63     5
   61    60    62     5
   61    60    63     5
   62    60    63     5
   60    63    64     5
   60    63    65     5
   60    63    66     5
   64    63    65     5
   64    63    66     5
   65    63    66     5
   63    66    67     5
   63    66    68     5
   63    66    69     5
   67    66    68     5
   67    66    69     5
   68    66    69     5
   66    69    70     5
   66    69    71     5
   66    69    72     5
   70    69    71     5
   70    69    72     5
   71    69    72     5
   69    72    73     5
   69    72    74     5
   73    72    74     5
   72    74    75     5
   72    74    76     5
   75    74    76     5
   74    76    77     5
   74    76    78     5
   74    76    79     5
   77    76    78     5
   77    76    79     5
   78    76    79     5
   76    79    80     5
   76    79    81     5
   80    79    81     5
   79    81    82     5
   79    81    83     5
   82    81    83     5
   81    83    84     5
   81    83    85     5
   81    83    86     5
   84    83    85     5
   84    83    86     5
   85    83    86     5
   83    86    87     5
   83    86    88     5
   87    86    88     5
   86    88    89     5
   86    88    90     5
   89    88    90     5
   88    90    91     5
   88    90    92     5
   88    90    93     5
   91    90    92     5
   91    90    93     5
   92    90    93     5
   90    93    94     5
   90    93    95     5
   90    93    96     5
   94    93    95     5
   94    93    96     5
   95    93    96     5

[ dihedrals ]
; ai	aj	ak	al	funct	phi0	cp	mult
    2     1     4     5     9
    3     1     4     5     9
    2     1     6     7     9
    2     1     6     8     9
    2     1     6    14     9
    3     1     6     7     9
    3     1     6     8     9
    3     1     6    14     9
    4     1     6     7     9
    4     1     6     8     9
    4     1     6    14     9
    5     4     1     6     9
    1     6     8     9     9
    7     6     8     9     9
    1     6    14    15     9
    1     6    14    16     9
    1     6    14    17     9
    7     6    14    15     9
    7     6    14    16     9
    7     6    14    17     9
    8     6    14    15     9
    8     6    14    16     9
    8     6    14    17     9
    9     8     6    14     9
    6     8     9    10     9
    6     8     9    11     9
    8     9    11    12     9
    8     9    11    13     9
    8     9    11    23     9
   10     9    11    12     9
   10     9    11    13     9
   10     9    11    23     9
    9    11    23    24     9
    9    11    23    25     9
    9    11    23    26     9
   12    11    23    24     9
   12    11    23    25     9
   12    11    23    26     9
   13    11    23    24     9
   13    11    23    25     9
   13    11    23    26     9
    6    14    17    18     9
   15    14    17    18     9
   16    14    17    18     9
   14    17    18    19     9
   14    17    18    20     9
   17    18    20    21     9
   17    18    20    22     9
   17    18    20    60     9
   19    18    20    21     9
   19    18    20    22     9
   19    18    20    60     9
   18    20    60    61     9
   18    20    60    62     9
   18    20    60    63     9
   21    20    60    61     9
   21    20    60    62     9
   21    20    60    63     9
   22    20    60    61     9
   22    20    60    62     9
   22    20    60    63     9
   11    23    26    27     9
   11    23    26    28     9
   11    23    26    29     9
   24    23    26    27     9
   24    23    26    28     9
   24    23    26    29     9
   25    23    26    27     9
   25    23    26    28     9
   25    23    26    29     9
   23    26    29    30     9
   23    26    29    31     9
   23    26    29    32     9
   27    26    29    30     9
   27    26    29    31     9
   27    26    29    32     9
   28    26    29    30     9
   28    26    29    31     9
   28    26    29    32     9
   26    29    32    33     9
   26    29    32    34     9
   26    29    32    35     9
   30    29    32    33     9
   30    29    32    34     9
   30    29    32    35     9
   31    29    32    33     9
   31    29    32    34     9
   31    29    32    35     9
   29    32    35    36     9
   29    32    35    37     9
   33    32    35    36     9
   33    32    35    37     9
   34    32    35    36     9
   34    32    35    37     9
   32    35    37    38     9
   32    35    37    39     9
   36    35    37    38     9
   36    35    37    39     9
   35    37    39    40     9
   35    37    39    41     9
   35    37    39    42     9
   38    37    39    40     9
   38    37    39    41     9
   38    37    39    42     9
   37    39    42    43     9
   37    39    42    44     9
   40    39    42    43     9
   40    39    42    44     9
   41    39    42    43     9
   41    39    42    44     9
   39    42    44    45     9
   39    42    44    46     9
   43    42    44    45     9
   43    42    44    46     9
   42    44    46    47     9
   42    44    46    48     9
   42    44    46    49     9
   45    44    46    47     9
   45    44    46    48     9
   45    44    46    49     9
   44    46    49    50     9
   44    46    49    51     9
   47    46    49    50     9
   47    46    49    51     9
   48    46    49    50     9
   48    46    49    51     9
   46    49    51    52     9
   46    49    51    53     9
   50    49    51    52     9
   50    49    51    53     9
   49    51    53    54     9
   49    51    53    55     9
   49    51    53    56     9
   52    51    53    54     9
   52    51    53    55     9
   52    51    53    56     9
   51    53    56    57     9
   51    53    56    58     9
   51    53    56    59     9
   54    53    56    57     9
   54    53    56    58     9
   54    53    56    59     9
   55    53    56    57     9
   55    53    56    58     9
   55    53    56    59     9
   20    60    63    64     9
   20    60    63    65     9
   20    60    63    66     9
   61    60    63    64     9
   61    60    63    65     9
   61    60    63    66     9
   62    60    63    64     9
   62    60    63    65     9
   62    60    63    66     9
   60    63    66    67     9
   60    63    66    68     9
   60    63    66    69     9
   64    63    66    67     9
   64    63    66    68     9
   64    63    66    69     9
   65    63    66    67     9
   65    63    66    68     9
   65    63    66    69     9
   63    66    69    70     9
   63    66    69    71     9
   63    66    69    72     9
   67    66    69    70     9
   67    66    69    71     9
   67    66    69    72     9
   68    66    69    70     9
   68    66    69    71     9
   68    66    69    72     9
   66    69    72    73     9
   66    69    72    74     9
   70    69    72    73     9
   70    69    72    74     9
   71    69    72    73     9
   71    69    72    74     9
   69    72    74    75     9
   69    72    74    76     9
   73    72    74    75     9
   73    72    74    76     9
   72    74    76    77     9
   72    74    76    78     9
   72    74    76    79     9
   75    74    76    77     9
   75    74    76    78     9
   75    74    76    79     9
   74    76    79    80     9
   74    76    79    81     9
   77    76    79    80     9
   77    76    79    81     9
   78    76    79    80     9
   78    76    79    81     9
   76    79    81    82     9
   76    79    81    83     9
   80    79    81    82     9
   80    79    81    83     9
   79    81    83    84     9
   79    81    83    85     9
   79    81    83    86     9
   82    81    83    84     9
   82    81    83    85     9
   82    81    83    86     9
   81    83    86    87     9
   81    83    86    88     9
   84    83    86    87     9
   84    83    86    88     9
   85    83    86    87     9
   85    83    86    88     9
   83    86    88    89     9
   83    86    88    90     9
   87    86    88    89     9
   87    86    88    90     9
   86    88    90    91     9
   86    88    90    92     9
   86    88    90    93     9
   89    88    90    91     9
   89    88    90    92     9
   89    88    90    93     9
   88    90    93    94     9
   88    90    93    95     9
   88    90    93    96     9
   91    90    93    94     9
   91    90    93    95     9
   91    90    93    96     9
   92    90    93    94     9
   92    90    93    95     9
   92    90    93    96     9

[ dihedrals ]
; ai	aj	ak	al	funct	q0	cq
    9     8    11    10     2
   18    17    20    19     2

#ifdef POSRES
[ position_restraints ]
    4     1     0.0             0.0            POSRES_FC_LIPID
#endif

#ifdef DIHRES
[ dihedral_restraints ]
    1    14     6     8     1   -120.0      2.5       DIHRES_FC
   32    35    37    39     1      0.0      0.0       DIHRES_FC
   39    42    44    46     1      0.0      0.0       DIHRES_FC
   46    49    51    53     1      0.0      0.0       DIHRES_FC
   69    72    74    76     1      0.0      0.0       DIHRES_FC
   76    79    81    83     1      0.0      0.0       DIHRES_FC
   83    86    88    90     1      0.0      0.0       DIHRES_FC
#endif
