;;
;; Generated by CHARMM-GUI FF-Converter
;;
;; Correspondance:
;; jul316@lehigh.edu or wonpil@lehigh.edu
;;
;; GROMACS topology file for DTPA
;;


[ moleculetype ]
; name	nrexcl
DTPA	     3

[ atoms ]
; nr	type	resnr	residu	atom	cgnr	charge	mass
     1         PL     18     DTPA      P      1     1.500000    30.9740   ; qtot  1.500
     2        O2L     18     DTPA    O13      2    -0.820000    15.9994   ; qtot  0.680
     3        O2L     18     DTPA    O14      3    -0.820000    15.9994   ; qtot -0.140
     4        OHL     18     DTPA    O12      4    -0.680000    15.9994   ; qtot -0.820
     5        HOL     18     DTPA    H12      5     0.340000     1.0080   ; qtot -0.480
     6       OSLP     18     DTPA    O11      6    -0.620000    15.9994   ; qtot -1.100
     7       CTL2     18     DTPA     C1      7    -0.080000    12.0110   ; qtot -1.180
     8       HAL2     18     DTPA     HA      8     0.090000     1.0080   ; qtot -1.090
     9       HAL2     18     DTPA     HB      9     0.090000     1.0080   ; qtot -1.000
    10       CTL1     18     DTPA     C2     10     0.170000    12.0110   ; qtot -0.830
    11       HAL1     18     DTPA     HS     11     0.090000     1.0080   ; qtot -0.740
    12        OSL     18     DTPA    O21     12    -0.490000    15.9994   ; qtot -1.230
    13         CL     18     DTPA    C21     13     0.900000    12.0110   ; qtot -0.330
    14        OBL     18     DTPA    O22     14    -0.630000    15.9994   ; qtot -0.960
    15       CTL2     18     DTPA    C22     15    -0.220000    12.0110   ; qtot -1.180
    16       HAL2     18     DTPA    H2R     16     0.090000     1.0080   ; qtot -1.090
    17       HAL2     18     DTPA    H2S     17     0.090000     1.0080   ; qtot -1.000
    18       CTL2     18     DTPA     C3     18     0.080000    12.0110   ; qtot -0.920
    19       HAL2     18     DTPA     HX     19     0.090000     1.0080   ; qtot -0.830
    20       HAL2     18     DTPA     HY     20     0.090000     1.0080   ; qtot -0.740
    21        OSL     18     DTPA    O31     21    -0.490000    15.9994   ; qtot -1.230
    22         CL     18     DTPA    C31     22     0.900000    12.0110   ; qtot -0.330
    23        OBL     18     DTPA    O32     23    -0.630000    15.9994   ; qtot -0.960
    24       CTL2     18     DTPA    C32     24    -0.220000    12.0110   ; qtot -1.180
    25       HAL2     18     DTPA    H2X     25     0.090000     1.0080   ; qtot -1.090
    26       HAL2     18     DTPA    H2Y     26     0.090000     1.0080   ; qtot -1.000
    27       CTL2     18     DTPA    C23     27    -0.180000    12.0110   ; qtot -1.180
    28       HAL2     18     DTPA    H3R     28     0.090000     1.0080   ; qtot -1.090
    29       HAL2     18     DTPA    H3S     29     0.090000     1.0080   ; qtot -1.000
    30       CTL2     18     DTPA    C24     30    -0.180000    12.0110   ; qtot -1.180
    31       HAL2     18     DTPA    H4R     31     0.090000     1.0080   ; qtot -1.090
    32       HAL2     18     DTPA    H4S     32     0.090000     1.0080   ; qtot -1.000
    33       CTL2     18     DTPA    C25     33    -0.180000    12.0110   ; qtot -1.180
    34       HAL2     18     DTPA    H5R     34     0.090000     1.0080   ; qtot -1.090
    35       HAL2     18     DTPA    H5S     35     0.090000     1.0080   ; qtot -1.000
    36       CTL2     18     DTPA    C26     36    -0.180000    12.0110   ; qtot -1.180
    37       HAL2     18     DTPA    H6R     37     0.090000     1.0080   ; qtot -1.090
    38       HAL2     18     DTPA    H6S     38     0.090000     1.0080   ; qtot -1.000
    39       CEL1     18     DTPA    C27     39    -0.150000    12.0110   ; qtot -1.150
    40       HEL1     18     DTPA    H7R     40     0.150000     1.0080   ; qtot -1.000
    41       CEL1     18     DTPA    C28     41    -0.150000    12.0110   ; qtot -1.150
    42       HEL1     18     DTPA    H8R     42     0.150000     1.0080   ; qtot -1.000
    43       CTL2     18     DTPA    C29     43    -0.180000    12.0110   ; qtot -1.180
    44       HAL2     18     DTPA    H9R     44     0.090000     1.0080   ; qtot -1.090
    45       HAL2     18     DTPA    H9S     45     0.090000     1.0080   ; qtot -1.000
    46       CEL1     18     DTPA   C210     46    -0.150000    12.0110   ; qtot -1.150
    47       HEL1     18     DTPA   H10R     47     0.150000     1.0080   ; qtot -1.000
    48       CEL1     18     DTPA   C211     48    -0.150000    12.0110   ; qtot -1.150
    49       HEL1     18     DTPA   H11R     49     0.150000     1.0080   ; qtot -1.000
    50       CTL2     18     DTPA   C212     50    -0.180000    12.0110   ; qtot -1.180
    51       HAL2     18     DTPA   H12R     51     0.090000     1.0080   ; qtot -1.090
    52       HAL2     18     DTPA   H12S     52     0.090000     1.0080   ; qtot -1.000
    53       CEL1     18     DTPA   C213     53    -0.150000    12.0110   ; qtot -1.150
    54       HEL1     18     DTPA   H13R     54     0.150000     1.0080   ; qtot -1.000
    55       CEL1     18     DTPA   C214     55    -0.150000    12.0110   ; qtot -1.150
    56       HEL1     18     DTPA   H14R     56     0.150000     1.0080   ; qtot -1.000
    57       CTL2     18     DTPA   C215     57    -0.180000    12.0110   ; qtot -1.180
    58       HAL2     18     DTPA   H15R     58     0.090000     1.0080   ; qtot -1.090
    59       HAL2     18     DTPA   H15S     59     0.090000     1.0080   ; qtot -1.000
    60       CTL3     18     DTPA   C216     60    -0.270000    12.0110   ; qtot -1.270
    61       HAL3     18     DTPA   H16R     61     0.090000     1.0080   ; qtot -1.180
    62       HAL3     18     DTPA   H16S     62     0.090000     1.0080   ; qtot -1.090
    63       HAL3     18     DTPA   H16T     63     0.090000     1.0080   ; qtot -1.000
    64       CTL2     18     DTPA    C33     64    -0.180000    12.0110   ; qtot -1.180
    65       HAL2     18     DTPA    H3X     65     0.090000     1.0080   ; qtot -1.090
    66       HAL2     18     DTPA    H3Y     66     0.090000     1.0080   ; qtot -1.000
    67       CTL2     18     DTPA    C34     67    -0.180000    12.0110   ; qtot -1.180
    68       HAL2     18     DTPA    H4X     68     0.090000     1.0080   ; qtot -1.090
    69       HAL2     18     DTPA    H4Y     69     0.090000     1.0080   ; qtot -1.000
    70       CTL2     18     DTPA    C35     70    -0.180000    12.0110   ; qtot -1.180
    71       HAL2     18     DTPA    H5X     71     0.090000     1.0080   ; qtot -1.090
    72       HAL2     18     DTPA    H5Y     72     0.090000     1.0080   ; qtot -1.000
    73       CTL2     18     DTPA    C36     73    -0.180000    12.0110   ; qtot -1.180
    74       HAL2     18     DTPA    H6X     74     0.090000     1.0080   ; qtot -1.090
    75       HAL2     18     DTPA    H6Y     75     0.090000     1.0080   ; qtot -1.000
    76       CEL1     18     DTPA    C37     76    -0.150000    12.0110   ; qtot -1.150
    77       HEL1     18     DTPA    H7X     77     0.150000     1.0080   ; qtot -1.000
    78       CEL1     18     DTPA    C38     78    -0.150000    12.0110   ; qtot -1.150
    79       HEL1     18     DTPA    H8X     79     0.150000     1.0080   ; qtot -1.000
    80       CTL2     18     DTPA    C39     80    -0.180000    12.0110   ; qtot -1.180
    81       HAL2     18     DTPA    H9X     81     0.090000     1.0080   ; qtot -1.090
    82       HAL2     18     DTPA    H9Y     82     0.090000     1.0080   ; qtot -1.000
    83       CEL1     18     DTPA   C310     83    -0.150000    12.0110   ; qtot -1.150
    84       HEL1     18     DTPA   H10X     84     0.150000     1.0080   ; qtot -1.000
    85       CEL1     18     DTPA   C311     85    -0.150000    12.0110   ; qtot -1.150
    86       HEL1     18     DTPA   H11X     86     0.150000     1.0080   ; qtot -1.000
    87       CTL2     18     DTPA   C312     87    -0.180000    12.0110   ; qtot -1.180
    88       HAL2     18     DTPA   H12X     88     0.090000     1.0080   ; qtot -1.090
    89       HAL2     18     DTPA   H12Y     89     0.090000     1.0080   ; qtot -1.000
    90       CEL1     18     DTPA   C313     90    -0.150000    12.0110   ; qtot -1.150
    91       HEL1     18     DTPA   H13X     91     0.150000     1.0080   ; qtot -1.000
    92       CEL1     18     DTPA   C314     92    -0.150000    12.0110   ; qtot -1.150
    93       HEL1     18     DTPA   H14X     93     0.150000     1.0080   ; qtot -1.000
    94       CTL2     18     DTPA   C315     94    -0.180000    12.0110   ; qtot -1.180
    95       HAL2     18     DTPA   H15X     95     0.090000     1.0080   ; qtot -1.090
    96       HAL2     18     DTPA   H15Y     96     0.090000     1.0080   ; qtot -1.000
    97       CTL3     18     DTPA   C316     97    -0.270000    12.0110   ; qtot -1.270
    98       HAL3     18     DTPA   H16X     98     0.090000     1.0080   ; qtot -1.180
    99       HAL3     18     DTPA   H16Y     99     0.090000     1.0080   ; qtot -1.090
   100       HAL3     18     DTPA   H16Z    100     0.090000     1.0080   ; qtot -1.000

[ bonds ]
; ai	aj	funct	b0	Kb
    1     2     1
    1     3     1
    4     1     1
    1     6     1
    4     5     1
    6     7     1
    7     8     1
    7     9     1
    7    10     1
   10    11     1
   10    12     1
   10    18     1
   13    12     1
   13    14     1
   13    15     1
   15    16     1
   15    17     1
   15    27     1
   18    19     1
   18    20     1
   18    21     1
   22    21     1
   22    23     1
   22    24     1
   24    25     1
   24    26     1
   24    64     1
   27    28     1
   27    29     1
   27    30     1
   30    31     1
   30    32     1
   30    33     1
   33    34     1
   33    35     1
   33    36     1
   36    37     1
   36    38     1
   36    39     1
   39    40     1
   39    41     1
   41    42     1
   41    43     1
   43    44     1
   43    45     1
   43    46     1
   46    47     1
   46    48     1
   48    49     1
   48    50     1
   50    51     1
   50    52     1
   50    53     1
   53    54     1
   53    55     1
   55    56     1
   55    57     1
   57    58     1
   57    59     1
   57    60     1
   60    61     1
   60    62     1
   60    63     1
   64    65     1
   64    66     1
   64    67     1
   67    68     1
   67    69     1
   67    70     1
   70    71     1
   70    72     1
   70    73     1
   73    74     1
   73    75     1
   73    76     1
   76    77     1
   76    78     1
   78    79     1
   78    80     1
   80    81     1
   80    82     1
   80    83     1
   83    84     1
   83    85     1
   85    86     1
   85    87     1
   87    88     1
   87    89     1
   87    90     1
   90    91     1
   90    92     1
   92    93     1
   92    94     1
   94    95     1
   94    96     1
   94    97     1
   97    98     1
   97    99     1
   97   100     1

[ pairs ]
; ai	aj	funct	c6	c12 or
; ai	aj	funct	fudgeQQ	q1	q2	c6	c12
    1     8     1
    1     9     1
    1    10     1
    2     5     1
    2     7     1
    3     5     1
    3     7     1
    4     7     1
    5     6     1
    6    11     1
    6    12     1
    6    18     1
    7    13     1
    7    19     1
    7    20     1
    7    21     1
    8    11     1
    8    12     1
    8    18     1
    9    11     1
    9    12     1
    9    18     1
   10    14     1
   10    15     1
   10    22     1
   11    13     1
   11    19     1
   11    20     1
   11    21     1
   12    16     1
   12    17     1
   12    19     1
   12    20     1
   12    21     1
   12    27     1
   13    18     1
   13    28     1
   13    29     1
   13    30     1
   14    16     1
   14    17     1
   14    27     1
   15    31     1
   15    32     1
   15    33     1
   16    28     1
   16    29     1
   16    30     1
   17    28     1
   17    29     1
   17    30     1
   18    23     1
   18    24     1
   19    22     1
   20    22     1
   21    25     1
   21    26     1
   21    64     1
   22    65     1
   22    66     1
   22    67     1
   23    25     1
   23    26     1
   23    64     1
   24    68     1
   24    69     1
   24    70     1
   25    65     1
   25    66     1
   25    67     1
   26    65     1
   26    66     1
   26    67     1
   27    34     1
   27    35     1
   27    36     1
   28    31     1
   28    32     1
   28    33     1
   29    31     1
   29    32     1
   29    33     1
   30    37     1
   30    38     1
   30    39     1
   31    34     1
   31    35     1
   31    36     1
   32    34     1
   32    35     1
   32    36     1
   33    40     1
   33    41     1
   34    37     1
   34    38     1
   34    39     1
   35    37     1
   35    38     1
   35    39     1
   36    42     1
   36    43     1
   37    40     1
   37    41     1
   38    40     1
   38    41     1
   39    44     1
   39    45     1
   39    46     1
   40    42     1
   40    43     1
   41    47     1
   41    48     1
   42    44     1
   42    45     1
   42    46     1
   43    49     1
   43    50     1
   44    47     1
   44    48     1
   45    47     1
   45    48     1
   46    51     1
   46    52     1
   46    53     1
   47    49     1
   47    50     1
   48    54     1
   48    55     1
   49    51     1
   49    52     1
   49    53     1
   50    56     1
   50    57     1
   51    54     1
   51    55     1
   52    54     1
   52    55     1
   53    58     1
   53    59     1
   53    60     1
   54    56     1
   54    57     1
   55    61     1
   55    62     1
   55    63     1
   56    58     1
   56    59     1
   56    60     1
   58    61     1
   58    62     1
   58    63     1
   59    61     1
   59    62     1
   59    63     1
   64    71     1
   64    72     1
   64    73     1
   65    68     1
   65    69     1
   65    70     1
   66    68     1
   66    69     1
   66    70     1
   67    74     1
   67    75     1
   67    76     1
   68    71     1
   68    72     1
   68    73     1
   69    71     1
   69    72     1
   69    73     1
   70    77     1
   70    78     1
   71    74     1
   71    75     1
   71    76     1
   72    74     1
   72    75     1
   72    76     1
   73    79     1
   73    80     1
   74    77     1
   74    78     1
   75    77     1
   75    78     1
   76    81     1
   76    82     1
   76    83     1
   77    79     1
   77    80     1
   78    84     1
   78    85     1
   79    81     1
   79    82     1
   79    83     1
   80    86     1
   80    87     1
   81    84     1
   81    85     1
   82    84     1
   82    85     1
   83    88     1
   83    89     1
   83    90     1
   84    86     1
   84    87     1
   85    91     1
   85    92     1
   86    88     1
   86    89     1
   86    90     1
   87    93     1
   87    94     1
   88    91     1
   88    92     1
   89    91     1
   89    92     1
   90    95     1
   90    96     1
   90    97     1
   91    93     1
   91    94     1
   92    98     1
   92    99     1
   92   100     1
   93    95     1
   93    96     1
   93    97     1
   95    98     1
   95    99     1
   95   100     1
   96    98     1
   96    99     1
   96   100     1

[ angles ] 
; ai	aj	ak	funct	th0	cth	S0	Kub
    2     1     3     5
    2     1     4     5
    2     1     6     5
    3     1     4     5
    3     1     6     5
    4     1     6     5
    1     4     5     5
    1     6     7     5
    6     7     8     5
    6     7     9     5
    6     7    10     5
    8     7     9     5
    8     7    10     5
    9     7    10     5
    7    10    11     5
    7    10    12     5
    7    10    18     5
   11    10    12     5
   11    10    18     5
   12    10    18     5
   10    12    13     5
   12    13    14     5
   12    13    15     5
   14    13    15     5
   13    15    16     5
   13    15    17     5
   13    15    27     5
   16    15    17     5
   16    15    27     5
   17    15    27     5
   10    18    19     5
   10    18    20     5
   10    18    21     5
   19    18    20     5
   19    18    21     5
   20    18    21     5
   18    21    22     5
   21    22    23     5
   21    22    24     5
   23    22    24     5
   22    24    25     5
   22    24    26     5
   22    24    64     5
   25    24    26     5
   25    24    64     5
   26    24    64     5
   15    27    28     5
   15    27    29     5
   15    27    30     5
   28    27    29     5
   28    27    30     5
   29    27    30     5
   27    30    31     5
   27    30    32     5
   27    30    33     5
   31    30    32     5
   31    30    33     5
   32    30    33     5
   30    33    34     5
   30    33    35     5
   30    33    36     5
   34    33    35     5
   34    33    36     5
   35    33    36     5
   33    36    37     5
   33    36    38     5
   33    36    39     5
   37    36    38     5
   37    36    39     5
   38    36    39     5
   36    39    40     5
   36    39    41     5
   40    39    41     5
   39    41    42     5
   39    41    43     5
   42    41    43     5
   41    43    44     5
   41    43    45     5
   41    43    46     5
   44    43    45     5
   44    43    46     5
   45    43    46     5
   43    46    47     5
   43    46    48     5
   47    46    48     5
   46    48    49     5
   46    48    50     5
   49    48    50     5
   48    50    51     5
   48    50    52     5
   48    50    53     5
   51    50    52     5
   51    50    53     5
   52    50    53     5
   50    53    54     5
   50    53    55     5
   54    53    55     5
   53    55    56     5
   53    55    57     5
   56    55    57     5
   55    57    58     5
   55    57    59     5
   55    57    60     5
   58    57    59     5
   58    57    60     5
   59    57    60     5
   57    60    61     5
   57    60    62     5
   57    60    63     5
   61    60    62     5
   61    60    63     5
   62    60    63     5
   24    64    65     5
   24    64    66     5
   24    64    67     5
   65    64    66     5
   65    64    67     5
   66    64    67     5
   64    67    68     5
   64    67    69     5
   64    67    70     5
   68    67    69     5
   68    67    70     5
   69    67    70     5
   67    70    71     5
   67    70    72     5
   67    70    73     5
   71    70    72     5
   71    70    73     5
   72    70    73     5
   70    73    74     5
   70    73    75     5
   70    73    76     5
   74    73    75     5
   74    73    76     5
   75    73    76     5
   73    76    77     5
   73    76    78     5
   77    76    78     5
   76    78    79     5
   76    78    80     5
   79    78    80     5
   78    80    81     5
   78    80    82     5
   78    80    83     5
   81    80    82     5
   81    80    83     5
   82    80    83     5
   80    83    84     5
   80    83    85     5
   84    83    85     5
   83    85    86     5
   83    85    87     5
   86    85    87     5
   85    87    88     5
   85    87    89     5
   85    87    90     5
   88    87    89     5
   88    87    90     5
   89    87    90     5
   87    90    91     5
   87    90    92     5
   91    90    92     5
   90    92    93     5
   90    92    94     5
   93    92    94     5
   92    94    95     5
   92    94    96     5
   92    94    97     5
   95    94    96     5
   95    94    97     5
   96    94    97     5
   94    97    98     5
   94    97    99     5
   94    97   100     5
   98    97    99     5
   98    97   100     5
   99    97   100     5

[ dihedrals ]
; ai	aj	ak	al	funct	phi0	cp	mult
    2     1     4     5     9
    3     1     4     5     9
    2     1     6     7     9
    3     1     6     7     9
    4     1     6     7     9
    5     4     1     6     9
    1     6     7     8     9
    1     6     7     9     9
    1     6     7    10     9
    6     7    10    11     9
    6     7    10    12     9
    6     7    10    18     9
    8     7    10    11     9
    8     7    10    12     9
    8     7    10    18     9
    9     7    10    11     9
    9     7    10    12     9
    9     7    10    18     9
    7    10    12    13     9
   11    10    12    13     9
    7    10    18    19     9
    7    10    18    20     9
    7    10    18    21     9
   11    10    18    19     9
   11    10    18    20     9
   11    10    18    21     9
   12    10    18    19     9
   12    10    18    20     9
   12    10    18    21     9
   13    12    10    18     9
   10    12    13    14     9
   10    12    13    15     9
   12    13    15    16     9
   12    13    15    17     9
   12    13    15    27     9
   14    13    15    16     9
   14    13    15    17     9
   14    13    15    27     9
   13    15    27    28     9
   13    15    27    29     9
   13    15    27    30     9
   16    15    27    28     9
   16    15    27    29     9
   16    15    27    30     9
   17    15    27    28     9
   17    15    27    29     9
   17    15    27    30     9
   10    18    21    22     9
   19    18    21    22     9
   20    18    21    22     9
   18    21    22    23     9
   18    21    22    24     9
   21    22    24    25     9
   21    22    24    26     9
   21    22    24    64     9
   23    22    24    25     9
   23    22    24    26     9
   23    22    24    64     9
   22    24    64    65     9
   22    24    64    66     9
   22    24    64    67     9
   25    24    64    65     9
   25    24    64    66     9
   25    24    64    67     9
   26    24    64    65     9
   26    24    64    66     9
   26    24    64    67     9
   15    27    30    31     9
   15    27    30    32     9
   15    27    30    33     9
   28    27    30    31     9
   28    27    30    32     9
   28    27    30    33     9
   29    27    30    31     9
   29    27    30    32     9
   29    27    30    33     9
   27    30    33    34     9
   27    30    33    35     9
   27    30    33    36     9
   31    30    33    34     9
   31    30    33    35     9
   31    30    33    36     9
   32    30    33    34     9
   32    30    33    35     9
   32    30    33    36     9
   30    33    36    37     9
   30    33    36    38     9
   30    33    36    39     9
   34    33    36    37     9
   34    33    36    38     9
   34    33    36    39     9
   35    33    36    37     9
   35    33    36    38     9
   35    33    36    39     9
   33    36    39    40     9
   33    36    39    41     9
   37    36    39    40     9
   37    36    39    41     9
   38    36    39    40     9
   38    36    39    41     9
   36    39    41    42     9
   36    39    41    43     9
   40    39    41    42     9
   40    39    41    43     9
   39    41    43    44     9
   39    41    43    45     9
   39    41    43    46     9
   42    41    43    44     9
   42    41    43    45     9
   42    41    43    46     9
   41    43    46    47     9
   41    43    46    48     9
   44    43    46    47     9
   44    43    46    48     9
   45    43    46    47     9
   45    43    46    48     9
   43    46    48    49     9
   43    46    48    50     9
   47    46    48    49     9
   47    46    48    50     9
   46    48    50    51     9
   46    48    50    52     9
   46    48    50    53     9
   49    48    50    51     9
   49    48    50    52     9
   49    48    50    53     9
   48    50    53    54     9
   48    50    53    55     9
   51    50    53    54     9
   51    50    53    55     9
   52    50    53    54     9
   52    50    53    55     9
   50    53    55    56     9
   50    53    55    57     9
   54    53    55    56     9
   54    53    55    57     9
   53    55    57    58     9
   53    55    57    59     9
   53    55    57    60     9
   56    55    57    58     9
   56    55    57    59     9
   56    55    57    60     9
   55    57    60    61     9
   55    57    60    62     9
   55    57    60    63     9
   58    57    60    61     9
   58    57    60    62     9
   58    57    60    63     9
   59    57    60    61     9
   59    57    60    62     9
   59    57    60    63     9
   24    64    67    68     9
   24    64    67    69     9
   24    64    67    70     9
   65    64    67    68     9
   65    64    67    69     9
   65    64    67    70     9
   66    64    67    68     9
   66    64    67    69     9
   66    64    67    70     9
   64    67    70    71     9
   64    67    70    72     9
   64    67    70    73     9
   68    67    70    71     9
   68    67    70    72     9
   68    67    70    73     9
   69    67    70    71     9
   69    67    70    72     9
   69    67    70    73     9
   67    70    73    74     9
   67    70    73    75     9
   67    70    73    76     9
   71    70    73    74     9
   71    70    73    75     9
   71    70    73    76     9
   72    70    73    74     9
   72    70    73    75     9
   72    70    73    76     9
   70    73    76    77     9
   70    73    76    78     9
   74    73    76    77     9
   74    73    76    78     9
   75    73    76    77     9
   75    73    76    78     9
   73    76    78    79     9
   73    76    78    80     9
   77    76    78    79     9
   77    76    78    80     9
   76    78    80    81     9
   76    78    80    82     9
   76    78    80    83     9
   79    78    80    81     9
   79    78    80    82     9
   79    78    80    83     9
   78    80    83    84     9
   78    80    83    85     9
   81    80    83    84     9
   81    80    83    85     9
   82    80    83    84     9
   82    80    83    85     9
   80    83    85    86     9
   80    83    85    87     9
   84    83    85    86     9
   84    83    85    87     9
   83    85    87    88     9
   83    85    87    89     9
   83    85    87    90     9
   86    85    87    88     9
   86    85    87    89     9
   86    85    87    90     9
   85    87    90    91     9
   85    87    90    92     9
   88    87    90    91     9
   88    87    90    92     9
   89    87    90    91     9
   89    87    90    92     9
   87    90    92    93     9
   87    90    92    94     9
   91    90    92    93     9
   91    90    92    94     9
   90    92    94    95     9
   90    92    94    96     9
   90    92    94    97     9
   93    92    94    95     9
   93    92    94    96     9
   93    92    94    97     9
   92    94    97    98     9
   92    94    97    99     9
   92    94    97   100     9
   95    94    97    98     9
   95    94    97    99     9
   95    94    97   100     9
   96    94    97    98     9
   96    94    97    99     9
   96    94    97   100     9

[ dihedrals ]
; ai	aj	ak	al	funct	q0	cq
   13    12    15    14     2
   22    21    24    23     2

#ifdef POSRES
[ position_restraints ]
    1     1     0.0             0.0            POSRES_FC_LIPID
#endif

#ifdef DIHRES
[ dihedral_restraints ]
    7    18    10    12     1   -120.0      2.5       DIHRES_FC
   36    39    41    43     1      0.0      0.0       DIHRES_FC
   43    46    48    50     1      0.0      0.0       DIHRES_FC
   50    53    55    57     1      0.0      0.0       DIHRES_FC
   73    76    78    80     1      0.0      0.0       DIHRES_FC
   80    83    85    87     1      0.0      0.0       DIHRES_FC
   87    90    92    94     1      0.0      0.0       DIHRES_FC
#endif
