;;
;; Generated by CHARMM-GUI FF-Converter
;;
;; Correspondance:
;; jul316@lehigh.edu or wonpil@lehigh.edu
;;
;; GROMACS topology file for LINPI
;;


[ moleculetype ]
; name	nrexcl
LINPI	     3

[ atoms ]
; nr	type	resnr	residu	atom	cgnr	charge	mass
     1     CC3161    186    LINPI    C12      1     0.140000    12.0110   ; qtot  0.140
     2       HCA1    186    LINPI     H2      2     0.090000     1.0080   ; qtot  0.230
     3      OC311    186    LINPI     O2      3    -0.650000    15.9994   ; qtot -0.420
     4       HCP1    186    LINPI    HO2      4     0.420000     1.0080   ; qtot -0.000
     5     CC3161    186    LINPI    C13      5     0.140000    12.0110   ; qtot  0.140
     6       HCA1    186    LINPI     H3      6     0.090000     1.0080   ; qtot  0.230
     7      OC311    186    LINPI     O3      7    -0.650000    15.9994   ; qtot -0.420
     8       HCP1    186    LINPI    HO3      8     0.420000     1.0080   ; qtot -0.000
     9     CC3161    186    LINPI    C14      9     0.140000    12.0110   ; qtot  0.140
    10       HCA1    186    LINPI     H4     10     0.090000     1.0080   ; qtot  0.230
    11      OC311    186    LINPI     O4     11    -0.650000    15.9994   ; qtot -0.420
    12       HCP1    186    LINPI    HO4     12     0.420000     1.0080   ; qtot -0.000
    13     CC3161    186    LINPI    C15     13     0.140000    12.0110   ; qtot  0.140
    14       HCA1    186    LINPI     H5     14     0.090000     1.0080   ; qtot  0.230
    15      OC311    186    LINPI     O5     15    -0.650000    15.9994   ; qtot -0.420
    16       HCP1    186    LINPI    HO5     16     0.420000     1.0080   ; qtot -0.000
    17     CC3161    186    LINPI    C16     17     0.140000    12.0110   ; qtot  0.140
    18       HCA1    186    LINPI     H6     18     0.090000     1.0080   ; qtot  0.230
    19      OC311    186    LINPI     O6     19    -0.650000    15.9994   ; qtot -0.420
    20       HCP1    186    LINPI    HO6     20     0.420000     1.0080   ; qtot -0.000
    21     CC3161    186    LINPI    C11     21    -0.080000    12.0110   ; qtot -0.080
    22       HCA1    186    LINPI     H1     22     0.090000     1.0080   ; qtot  0.010
    23         PL    186    LINPI      P     23     1.590000    30.9740   ; qtot  1.600
    24        O2L    186    LINPI    O13     24    -0.780000    15.9994   ; qtot  0.820
    25        O2L    186    LINPI    O14     25    -0.780000    15.9994   ; qtot  0.040
    26      OC30P    186    LINPI    O12     26    -0.570000    15.9994   ; qtot -0.530
    27       OSLP    186    LINPI    O11     27    -0.570000    15.9994   ; qtot -1.100
    28       CTL2    186    LINPI     C1     28    -0.080000    12.0110   ; qtot -1.180
    29       HAL2    186    LINPI     HA     29     0.090000     1.0080   ; qtot -1.090
    30       HAL2    186    LINPI     HB     30     0.090000     1.0080   ; qtot -1.000
    31       CTL1    186    LINPI     C2     31     0.170000    12.0110   ; qtot -0.830
    32       HAL1    186    LINPI     HS     32     0.090000     1.0080   ; qtot -0.740
    33        OSL    186    LINPI    O21     33    -0.490000    15.9994   ; qtot -1.230
    34         CL    186    LINPI    C21     34     0.900000    12.0110   ; qtot -0.330
    35        OBL    186    LINPI    O22     35    -0.630000    15.9994   ; qtot -0.960
    36       CTL2    186    LINPI    C22     36    -0.220000    12.0110   ; qtot -1.180
    37       HAL2    186    LINPI    H2R     37     0.090000     1.0080   ; qtot -1.090
    38       HAL2    186    LINPI    H2S     38     0.090000     1.0080   ; qtot -1.000
    39       CTL2    186    LINPI     C3     39     0.080000    12.0110   ; qtot -0.920
    40       HAL2    186    LINPI     HX     40     0.090000     1.0080   ; qtot -0.830
    41       HAL2    186    LINPI     HY     41     0.090000     1.0080   ; qtot -0.740
    42        OSL    186    LINPI    O31     42    -0.490000    15.9994   ; qtot -1.230
    43         CL    186    LINPI    C31     43     0.900000    12.0110   ; qtot -0.330
    44        OBL    186    LINPI    O32     44    -0.630000    15.9994   ; qtot -0.960
    45       CTL2    186    LINPI    C32     45    -0.220000    12.0110   ; qtot -1.180
    46       HAL2    186    LINPI    H2X     46     0.090000     1.0080   ; qtot -1.090
    47       HAL2    186    LINPI    H2Y     47     0.090000     1.0080   ; qtot -1.000
    48       CTL2    186    LINPI    C23     48    -0.180000    12.0110   ; qtot -1.180
    49       HAL2    186    LINPI    H3R     49     0.090000     1.0080   ; qtot -1.090
    50       HAL2    186    LINPI    H3S     50     0.090000     1.0080   ; qtot -1.000
    51       CTL2    186    LINPI    C24     51    -0.180000    12.0110   ; qtot -1.180
    52       HAL2    186    LINPI    H4R     52     0.090000     1.0080   ; qtot -1.090
    53       HAL2    186    LINPI    H4S     53     0.090000     1.0080   ; qtot -1.000
    54       CTL2    186    LINPI    C25     54    -0.180000    12.0110   ; qtot -1.180
    55       HAL2    186    LINPI    H5R     55     0.090000     1.0080   ; qtot -1.090
    56       HAL2    186    LINPI    H5S     56     0.090000     1.0080   ; qtot -1.000
    57       CTL2    186    LINPI    C26     57    -0.180000    12.0110   ; qtot -1.180
    58       HAL2    186    LINPI    H6R     58     0.090000     1.0080   ; qtot -1.090
    59       HAL2    186    LINPI    H6S     59     0.090000     1.0080   ; qtot -1.000
    60       CTL2    186    LINPI    C27     60    -0.180000    12.0110   ; qtot -1.180
    61       HAL2    186    LINPI    H7R     61     0.090000     1.0080   ; qtot -1.090
    62       HAL2    186    LINPI    H7S     62     0.090000     1.0080   ; qtot -1.000
    63       CTL2    186    LINPI    C28     63    -0.180000    12.0110   ; qtot -1.180
    64       HAL2    186    LINPI    H8R     64     0.090000     1.0080   ; qtot -1.090
    65       HAL2    186    LINPI    H8S     65     0.090000     1.0080   ; qtot -1.000
    66       CEL1    186    LINPI    C29     66    -0.150000    12.0110   ; qtot -1.150
    67       HEL1    186    LINPI    H91     67     0.150000     1.0080   ; qtot -1.000
    68       CEL1    186    LINPI   C210     68    -0.150000    12.0110   ; qtot -1.150
    69       HEL1    186    LINPI   H101     69     0.150000     1.0080   ; qtot -1.000
    70       CTL2    186    LINPI   C211     70    -0.180000    12.0110   ; qtot -1.180
    71       HAL2    186    LINPI   H11R     71     0.090000     1.0080   ; qtot -1.090
    72       HAL2    186    LINPI   H11S     72     0.090000     1.0080   ; qtot -1.000
    73       CEL1    186    LINPI   C212     73    -0.150000    12.0110   ; qtot -1.150
    74       HEL1    186    LINPI   H121     74     0.150000     1.0080   ; qtot -1.000
    75       CEL1    186    LINPI   C213     75    -0.150000    12.0110   ; qtot -1.150
    76       HEL1    186    LINPI   H131     76     0.150000     1.0080   ; qtot -1.000
    77       CTL2    186    LINPI   C214     77    -0.180000    12.0110   ; qtot -1.180
    78       HAL2    186    LINPI   H14R     78     0.090000     1.0080   ; qtot -1.090
    79       HAL2    186    LINPI   H14S     79     0.090000     1.0080   ; qtot -1.000
    80       CEL1    186    LINPI   C215     80    -0.150000    12.0110   ; qtot -1.150
    81       HEL1    186    LINPI   H151     81     0.150000     1.0080   ; qtot -1.000
    82       CEL1    186    LINPI   C216     82    -0.150000    12.0110   ; qtot -1.150
    83       HEL1    186    LINPI   H161     83     0.150000     1.0080   ; qtot -1.000
    84       CTL2    186    LINPI   C217     84    -0.180000    12.0110   ; qtot -1.180
    85       HAL2    186    LINPI   H17R     85     0.090000     1.0080   ; qtot -1.090
    86       HAL2    186    LINPI   H17S     86     0.090000     1.0080   ; qtot -1.000
    87       CTL3    186    LINPI   C218     87    -0.270000    12.0110   ; qtot -1.270
    88       HAL3    186    LINPI   H18R     88     0.090000     1.0080   ; qtot -1.180
    89       HAL3    186    LINPI   H18S     89     0.090000     1.0080   ; qtot -1.090
    90       HAL3    186    LINPI   H18T     90     0.090000     1.0080   ; qtot -1.000
    91       CTL2    186    LINPI    C33     91    -0.180000    12.0110   ; qtot -1.180
    92       HAL2    186    LINPI    H3X     92     0.090000     1.0080   ; qtot -1.090
    93       HAL2    186    LINPI    H3Y     93     0.090000     1.0080   ; qtot -1.000
    94       CTL2    186    LINPI    C34     94    -0.180000    12.0110   ; qtot -1.180
    95       HAL2    186    LINPI    H4X     95     0.090000     1.0080   ; qtot -1.090
    96       HAL2    186    LINPI    H4Y     96     0.090000     1.0080   ; qtot -1.000
    97       CTL2    186    LINPI    C35     97    -0.180000    12.0110   ; qtot -1.180
    98       HAL2    186    LINPI    H5X     98     0.090000     1.0080   ; qtot -1.090
    99       HAL2    186    LINPI    H5Y     99     0.090000     1.0080   ; qtot -1.000
   100       CTL2    186    LINPI    C36    100    -0.180000    12.0110   ; qtot -1.180
   101       HAL2    186    LINPI    H6X    101     0.090000     1.0080   ; qtot -1.090
   102       HAL2    186    LINPI    H6Y    102     0.090000     1.0080   ; qtot -1.000
   103       CTL2    186    LINPI    C37    103    -0.180000    12.0110   ; qtot -1.180
   104       HAL2    186    LINPI    H7X    104     0.090000     1.0080   ; qtot -1.090
   105       HAL2    186    LINPI    H7Y    105     0.090000     1.0080   ; qtot -1.000
   106       CTL2    186    LINPI    C38    106    -0.180000    12.0110   ; qtot -1.180
   107       HAL2    186    LINPI    H8X    107     0.090000     1.0080   ; qtot -1.090
   108       HAL2    186    LINPI    H8Y    108     0.090000     1.0080   ; qtot -1.000
   109       CEL1    186    LINPI    C39    109    -0.150000    12.0110   ; qtot -1.150
   110       HEL1    186    LINPI    H9X    110     0.150000     1.0080   ; qtot -1.000
   111       CEL1    186    LINPI   C310    111    -0.150000    12.0110   ; qtot -1.150
   112       HEL1    186    LINPI   H10X    112     0.150000     1.0080   ; qtot -1.000
   113       CTL2    186    LINPI   C311    113    -0.180000    12.0110   ; qtot -1.180
   114       HAL2    186    LINPI   H11X    114     0.090000     1.0080   ; qtot -1.090
   115       HAL2    186    LINPI   H11Y    115     0.090000     1.0080   ; qtot -1.000
   116       CEL1    186    LINPI   C312    116    -0.150000    12.0110   ; qtot -1.150
   117       HEL1    186    LINPI   H12X    117     0.150000     1.0080   ; qtot -1.000
   118       CEL1    186    LINPI   C313    118    -0.150000    12.0110   ; qtot -1.150
   119       HEL1    186    LINPI   H13X    119     0.150000     1.0080   ; qtot -1.000
   120       CTL2    186    LINPI   C314    120    -0.180000    12.0110   ; qtot -1.180
   121       HAL2    186    LINPI   H14X    121     0.090000     1.0080   ; qtot -1.090
   122       HAL2    186    LINPI   H14Y    122     0.090000     1.0080   ; qtot -1.000
   123       CTL2    186    LINPI   C315    123    -0.180000    12.0110   ; qtot -1.180
   124       HAL2    186    LINPI   H15X    124     0.090000     1.0080   ; qtot -1.090
   125       HAL2    186    LINPI   H15Y    125     0.090000     1.0080   ; qtot -1.000
   126       CTL2    186    LINPI   C316    126    -0.180000    12.0110   ; qtot -1.180
   127       HAL2    186    LINPI   H16X    127     0.090000     1.0080   ; qtot -1.090
   128       HAL2    186    LINPI   H16Y    128     0.090000     1.0080   ; qtot -1.000
   129       CTL2    186    LINPI   C317    129    -0.180000    12.0110   ; qtot -1.180
   130       HAL2    186    LINPI   H17X    130     0.090000     1.0080   ; qtot -1.090
   131       HAL2    186    LINPI   H17Y    131     0.090000     1.0080   ; qtot -1.000
   132       CTL3    186    LINPI   C318    132    -0.270000    12.0110   ; qtot -1.270
   133       HAL3    186    LINPI   H18X    133     0.090000     1.0080   ; qtot -1.180
   134       HAL3    186    LINPI   H18Y    134     0.090000     1.0080   ; qtot -1.090
   135       HAL3    186    LINPI   H18Z    135     0.090000     1.0080   ; qtot -1.000

[ bonds ]
; ai	aj	funct	b0	Kb
    1     2     1
    1     3     1
    1     5     1
   21     1     1
    3     4     1
    5     6     1
    5     7     1
    5     9     1
    7     8     1
    9    10     1
    9    11     1
    9    13     1
   11    12     1
   13    14     1
   13    15     1
   13    17     1
   15    16     1
   17    18     1
   17    19     1
   21    17     1
   19    20     1
   21    22     1
   21    26     1
   23    24     1
   23    25     1
   26    23     1
   23    27     1
   27    28     1
   28    29     1
   28    30     1
   28    31     1
   31    32     1
   31    33     1
   31    39     1
   33    34     1
   34    35     1
   34    36     1
   36    37     1
   36    38     1
   36    48     1
   39    40     1
   39    41     1
   39    42     1
   42    43     1
   43    44     1
   43    45     1
   45    46     1
   45    47     1
   45    91     1
   48    49     1
   48    50     1
   48    51     1
   51    52     1
   51    53     1
   51    54     1
   54    55     1
   54    56     1
   54    57     1
   57    58     1
   57    59     1
   57    60     1
   60    61     1
   60    62     1
   60    63     1
   63    64     1
   63    65     1
   63    66     1
   66    67     1
   66    68     1
   68    69     1
   68    70     1
   70    71     1
   70    72     1
   70    73     1
   73    74     1
   73    75     1
   75    76     1
   75    77     1
   77    78     1
   77    79     1
   77    80     1
   80    81     1
   80    82     1
   82    83     1
   82    84     1
   84    85     1
   84    86     1
   84    87     1
   87    88     1
   87    89     1
   87    90     1
   91    92     1
   91    93     1
   91    94     1
   94    95     1
   94    96     1
   94    97     1
   97    98     1
   97    99     1
   97   100     1
  100   101     1
  100   102     1
  100   103     1
  103   104     1
  103   105     1
  103   106     1
  106   107     1
  106   108     1
  106   109     1
  109   110     1
  109   111     1
  111   112     1
  111   113     1
  113   114     1
  113   115     1
  113   116     1
  116   117     1
  116   118     1
  118   119     1
  118   120     1
  120   121     1
  120   122     1
  120   123     1
  123   124     1
  123   125     1
  123   126     1
  126   127     1
  126   128     1
  126   129     1
  129   130     1
  129   131     1
  129   132     1
  132   133     1
  132   134     1
  132   135     1

[ pairs ]
; ai	aj	funct	c6	c12 or
; ai	aj	funct	fudgeQQ	q1	q2	c6	c12
    1     8     1
    1    10     1
    1    11     1
    1    13     1
    1    18     1
    1    19     1
    1    23     1
    2     4     1
    2     6     1
    2     7     1
    2     9     1
    2    17     1
    2    22     1
    2    26     1
    3     6     1
    3     7     1
    3     9     1
    3    17     1
    3    22     1
    3    26     1
    4     5     1
    4    21     1
    5    12     1
    5    14     1
    5    15     1
    5    17     1
    5    22     1
    5    26     1
    6     8     1
    6    10     1
    6    11     1
    6    13     1
    6    21     1
    7    10     1
    7    11     1
    7    13     1
    7    21     1
    8     9     1
    9    16     1
    9    18     1
    9    19     1
    9    21     1
   10    12     1
   10    14     1
   10    15     1
   10    17     1
   11    14     1
   11    15     1
   11    17     1
   12    13     1
   13    20     1
   13    22     1
   13    26     1
   14    16     1
   14    18     1
   14    19     1
   14    21     1
   15    18     1
   15    19     1
   15    21     1
   16    17     1
   17    23     1
   18    20     1
   18    22     1
   18    26     1
   19    22     1
   19    26     1
   20    21     1
   21    24     1
   21    25     1
   21    27     1
   22    23     1
   23    29     1
   23    30     1
   23    31     1
   24    28     1
   25    28     1
   26    28     1
   27    32     1
   27    33     1
   27    39     1
   28    34     1
   28    40     1
   28    41     1
   28    42     1
   29    32     1
   29    33     1
   29    39     1
   30    32     1
   30    33     1
   30    39     1
   31    35     1
   31    36     1
   31    43     1
   32    34     1
   32    40     1
   32    41     1
   32    42     1
   33    37     1
   33    38     1
   33    40     1
   33    41     1
   33    42     1
   33    48     1
   34    39     1
   34    49     1
   34    50     1
   34    51     1
   35    37     1
   35    38     1
   35    48     1
   36    52     1
   36    53     1
   36    54     1
   37    49     1
   37    50     1
   37    51     1
   38    49     1
   38    50     1
   38    51     1
   39    44     1
   39    45     1
   40    43     1
   41    43     1
   42    46     1
   42    47     1
   42    91     1
   43    92     1
   43    93     1
   43    94     1
   44    46     1
   44    47     1
   44    91     1
   45    95     1
   45    96     1
   45    97     1
   46    92     1
   46    93     1
   46    94     1
   47    92     1
   47    93     1
   47    94     1
   48    55     1
   48    56     1
   48    57     1
   49    52     1
   49    53     1
   49    54     1
   50    52     1
   50    53     1
   50    54     1
   51    58     1
   51    59     1
   51    60     1
   52    55     1
   52    56     1
   52    57     1
   53    55     1
   53    56     1
   53    57     1
   54    61     1
   54    62     1
   54    63     1
   55    58     1
   55    59     1
   55    60     1
   56    58     1
   56    59     1
   56    60     1
   57    64     1
   57    65     1
   57    66     1
   58    61     1
   58    62     1
   58    63     1
   59    61     1
   59    62     1
   59    63     1
   60    67     1
   60    68     1
   61    64     1
   61    65     1
   61    66     1
   62    64     1
   62    65     1
   62    66     1
   63    69     1
   63    70     1
   64    67     1
   64    68     1
   65    67     1
   65    68     1
   66    71     1
   66    72     1
   66    73     1
   67    69     1
   67    70     1
   68    74     1
   68    75     1
   69    71     1
   69    72     1
   69    73     1
   70    76     1
   70    77     1
   71    74     1
   71    75     1
   72    74     1
   72    75     1
   73    78     1
   73    79     1
   73    80     1
   74    76     1
   74    77     1
   75    81     1
   75    82     1
   76    78     1
   76    79     1
   76    80     1
   77    83     1
   77    84     1
   78    81     1
   78    82     1
   79    81     1
   79    82     1
   80    85     1
   80    86     1
   80    87     1
   81    83     1
   81    84     1
   82    88     1
   82    89     1
   82    90     1
   83    85     1
   83    86     1
   83    87     1
   85    88     1
   85    89     1
   85    90     1
   86    88     1
   86    89     1
   86    90     1
   91    98     1
   91    99     1
   91   100     1
   92    95     1
   92    96     1
   92    97     1
   93    95     1
   93    96     1
   93    97     1
   94   101     1
   94   102     1
   94   103     1
   95    98     1
   95    99     1
   95   100     1
   96    98     1
   96    99     1
   96   100     1
   97   104     1
   97   105     1
   97   106     1
   98   101     1
   98   102     1
   98   103     1
   99   101     1
   99   102     1
   99   103     1
  100   107     1
  100   108     1
  100   109     1
  101   104     1
  101   105     1
  101   106     1
  102   104     1
  102   105     1
  102   106     1
  103   110     1
  103   111     1
  104   107     1
  104   108     1
  104   109     1
  105   107     1
  105   108     1
  105   109     1
  106   112     1
  106   113     1
  107   110     1
  107   111     1
  108   110     1
  108   111     1
  109   114     1
  109   115     1
  109   116     1
  110   112     1
  110   113     1
  111   117     1
  111   118     1
  112   114     1
  112   115     1
  112   116     1
  113   119     1
  113   120     1
  114   117     1
  114   118     1
  115   117     1
  115   118     1
  116   121     1
  116   122     1
  116   123     1
  117   119     1
  117   120     1
  118   124     1
  118   125     1
  118   126     1
  119   121     1
  119   122     1
  119   123     1
  120   127     1
  120   128     1
  120   129     1
  121   124     1
  121   125     1
  121   126     1
  122   124     1
  122   125     1
  122   126     1
  123   130     1
  123   131     1
  123   132     1
  124   127     1
  124   128     1
  124   129     1
  125   127     1
  125   128     1
  125   129     1
  126   133     1
  126   134     1
  126   135     1
  127   130     1
  127   131     1
  127   132     1
  128   130     1
  128   131     1
  128   132     1
  130   133     1
  130   134     1
  130   135     1
  131   133     1
  131   134     1
  131   135     1

[ angles ] 
; ai	aj	ak	funct	th0	cth	S0	Kub
    2     1     3     5
    2     1     5     5
    2     1    21     5
    3     1     5     5
    3     1    21     5
    5     1    21     5
    1     3     4     5
    1     5     6     5
    1     5     7     5
    1     5     9     5
    6     5     7     5
    6     5     9     5
    7     5     9     5
    5     7     8     5
    5     9    10     5
    5     9    11     5
    5     9    13     5
   10     9    11     5
   10     9    13     5
   11     9    13     5
    9    11    12     5
    9    13    14     5
    9    13    15     5
    9    13    17     5
   14    13    15     5
   14    13    17     5
   15    13    17     5
   13    15    16     5
   13    17    18     5
   13    17    19     5
   13    17    21     5
   18    17    19     5
   18    17    21     5
   19    17    21     5
   17    19    20     5
    1    21    17     5
    1    21    22     5
    1    21    26     5
   17    21    22     5
   17    21    26     5
   22    21    26     5
   24    23    25     5
   24    23    26     5
   24    23    27     5
   25    23    26     5
   25    23    27     5
   26    23    27     5
   21    26    23     5
   23    27    28     5
   27    28    29     5
   27    28    30     5
   27    28    31     5
   29    28    30     5
   29    28    31     5
   30    28    31     5
   28    31    32     5
   28    31    33     5
   28    31    39     5
   32    31    33     5
   32    31    39     5
   33    31    39     5
   31    33    34     5
   33    34    35     5
   33    34    36     5
   35    34    36     5
   34    36    37     5
   34    36    38     5
   34    36    48     5
   37    36    38     5
   37    36    48     5
   38    36    48     5
   31    39    40     5
   31    39    41     5
   31    39    42     5
   40    39    41     5
   40    39    42     5
   41    39    42     5
   39    42    43     5
   42    43    44     5
   42    43    45     5
   44    43    45     5
   43    45    46     5
   43    45    47     5
   43    45    91     5
   46    45    47     5
   46    45    91     5
   47    45    91     5
   36    48    49     5
   36    48    50     5
   36    48    51     5
   49    48    50     5
   49    48    51     5
   50    48    51     5
   48    51    52     5
   48    51    53     5
   48    51    54     5
   52    51    53     5
   52    51    54     5
   53    51    54     5
   51    54    55     5
   51    54    56     5
   51    54    57     5
   55    54    56     5
   55    54    57     5
   56    54    57     5
   54    57    58     5
   54    57    59     5
   54    57    60     5
   58    57    59     5
   58    57    60     5
   59    57    60     5
   57    60    61     5
   57    60    62     5
   57    60    63     5
   61    60    62     5
   61    60    63     5
   62    60    63     5
   60    63    64     5
   60    63    65     5
   60    63    66     5
   64    63    65     5
   64    63    66     5
   65    63    66     5
   63    66    67     5
   63    66    68     5
   67    66    68     5
   66    68    69     5
   66    68    70     5
   69    68    70     5
   68    70    71     5
   68    70    72     5
   68    70    73     5
   71    70    72     5
   71    70    73     5
   72    70    73     5
   70    73    74     5
   70    73    75     5
   74    73    75     5
   73    75    76     5
   73    75    77     5
   76    75    77     5
   75    77    78     5
   75    77    79     5
   75    77    80     5
   78    77    79     5
   78    77    80     5
   79    77    80     5
   77    80    81     5
   77    80    82     5
   81    80    82     5
   80    82    83     5
   80    82    84     5
   83    82    84     5
   82    84    85     5
   82    84    86     5
   82    84    87     5
   85    84    86     5
   85    84    87     5
   86    84    87     5
   84    87    88     5
   84    87    89     5
   84    87    90     5
   88    87    89     5
   88    87    90     5
   89    87    90     5
   45    91    92     5
   45    91    93     5
   45    91    94     5
   92    91    93     5
   92    91    94     5
   93    91    94     5
   91    94    95     5
   91    94    96     5
   91    94    97     5
   95    94    96     5
   95    94    97     5
   96    94    97     5
   94    97    98     5
   94    97    99     5
   94    97   100     5
   98    97    99     5
   98    97   100     5
   99    97   100     5
   97   100   101     5
   97   100   102     5
   97   100   103     5
  101   100   102     5
  101   100   103     5
  102   100   103     5
  100   103   104     5
  100   103   105     5
  100   103   106     5
  104   103   105     5
  104   103   106     5
  105   103   106     5
  103   106   107     5
  103   106   108     5
  103   106   109     5
  107   106   108     5
  107   106   109     5
  108   106   109     5
  106   109   110     5
  106   109   111     5
  110   109   111     5
  109   111   112     5
  109   111   113     5
  112   111   113     5
  111   113   114     5
  111   113   115     5
  111   113   116     5
  114   113   115     5
  114   113   116     5
  115   113   116     5
  113   116   117     5
  113   116   118     5
  117   116   118     5
  116   118   119     5
  116   118   120     5
  119   118   120     5
  118   120   121     5
  118   120   122     5
  118   120   123     5
  121   120   122     5
  121   120   123     5
  122   120   123     5
  120   123   124     5
  120   123   125     5
  120   123   126     5
  124   123   125     5
  124   123   126     5
  125   123   126     5
  123   126   127     5
  123   126   128     5
  123   126   129     5
  127   126   128     5
  127   126   129     5
  128   126   129     5
  126   129   130     5
  126   129   131     5
  126   129   132     5
  130   129   131     5
  130   129   132     5
  131   129   132     5
  129   132   133     5
  129   132   134     5
  129   132   135     5
  133   132   134     5
  133   132   135     5
  134   132   135     5

[ dihedrals ]
; ai	aj	ak	al	funct	phi0	cp	mult
    2     1     3     4     9
    2     1     5     6     9
    2     1     5     7     9
    2     1     5     9     9
    3     1     5     6     9
    3     1     5     7     9
    3     1     5     9     9
    2     1    21    17     9
    2     1    21    22     9
    2     1    21    26     9
    3     1    21    17     9
    3     1    21    22     9
    3     1    21    26     9
    5     1    21    17     9
    5     1    21    22     9
    5     1    21    26     9
    4     3     1     5     9
    4     3     1    21     9
    6     5     1    21     9
    7     5     1    21     9
    9     5     1    21     9
    1     5     7     8     9
    6     5     7     8     9
    1     5     9    10     9
    1     5     9    11     9
    1     5     9    13     9
    6     5     9    10     9
    6     5     9    11     9
    6     5     9    13     9
    7     5     9    10     9
    7     5     9    11     9
    7     5     9    13     9
    8     7     5     9     9
    5     9    11    12     9
   10     9    11    12     9
    5     9    13    14     9
    5     9    13    15     9
    5     9    13    17     9
   10     9    13    14     9
   10     9    13    15     9
   10     9    13    17     9
   11     9    13    14     9
   11     9    13    15     9
   11     9    13    17     9
   12    11     9    13     9
    9    13    15    16     9
   14    13    15    16     9
    9    13    17    18     9
    9    13    17    19     9
    9    13    17    21     9
   14    13    17    18     9
   14    13    17    19     9
   14    13    17    21     9
   15    13    17    18     9
   15    13    17    19     9
   15    13    17    21     9
   16    15    13    17     9
   13    17    19    20     9
   18    17    19    20     9
   13    17    21    22     9
   13    17    21    26     9
   18    17    21    22     9
   18    17    21    26     9
   19    17    21    22     9
   19    17    21    26     9
   20    19    17    21     9
    1    21    17    13     9
    1    21    17    18     9
    1    21    17    19     9
    1    21    26    23     9
   17    21    26    23     9
   22    21    26    23     9
   24    23    27    28     9
   25    23    27    28     9
   26    23    27    28     9
   21    26    23    24     9
   21    26    23    25     9
   21    26    23    27     9
   23    27    28    29     9
   23    27    28    30     9
   23    27    28    31     9
   27    28    31    32     9
   27    28    31    33     9
   27    28    31    39     9
   29    28    31    32     9
   29    28    31    33     9
   29    28    31    39     9
   30    28    31    32     9
   30    28    31    33     9
   30    28    31    39     9
   28    31    33    34     9
   32    31    33    34     9
   28    31    39    40     9
   28    31    39    41     9
   28    31    39    42     9
   32    31    39    40     9
   32    31    39    41     9
   32    31    39    42     9
   33    31    39    40     9
   33    31    39    41     9
   33    31    39    42     9
   34    33    31    39     9
   31    33    34    35     9
   31    33    34    36     9
   33    34    36    37     9
   33    34    36    38     9
   33    34    36    48     9
   35    34    36    37     9
   35    34    36    38     9
   35    34    36    48     9
   34    36    48    49     9
   34    36    48    50     9
   34    36    48    51     9
   37    36    48    49     9
   37    36    48    50     9
   37    36    48    51     9
   38    36    48    49     9
   38    36    48    50     9
   38    36    48    51     9
   31    39    42    43     9
   40    39    42    43     9
   41    39    42    43     9
   39    42    43    44     9
   39    42    43    45     9
   42    43    45    46     9
   42    43    45    47     9
   42    43    45    91     9
   44    43    45    46     9
   44    43    45    47     9
   44    43    45    91     9
   43    45    91    92     9
   43    45    91    93     9
   43    45    91    94     9
   46    45    91    92     9
   46    45    91    93     9
   46    45    91    94     9
   47    45    91    92     9
   47    45    91    93     9
   47    45    91    94     9
   36    48    51    52     9
   36    48    51    53     9
   36    48    51    54     9
   49    48    51    52     9
   49    48    51    53     9
   49    48    51    54     9
   50    48    51    52     9
   50    48    51    53     9
   50    48    51    54     9
   48    51    54    55     9
   48    51    54    56     9
   48    51    54    57     9
   52    51    54    55     9
   52    51    54    56     9
   52    51    54    57     9
   53    51    54    55     9
   53    51    54    56     9
   53    51    54    57     9
   51    54    57    58     9
   51    54    57    59     9
   51    54    57    60     9
   55    54    57    58     9
   55    54    57    59     9
   55    54    57    60     9
   56    54    57    58     9
   56    54    57    59     9
   56    54    57    60     9
   54    57    60    61     9
   54    57    60    62     9
   54    57    60    63     9
   58    57    60    61     9
   58    57    60    62     9
   58    57    60    63     9
   59    57    60    61     9
   59    57    60    62     9
   59    57    60    63     9
   57    60    63    64     9
   57    60    63    65     9
   57    60    63    66     9
   61    60    63    64     9
   61    60    63    65     9
   61    60    63    66     9
   62    60    63    64     9
   62    60    63    65     9
   62    60    63    66     9
   60    63    66    67     9
   60    63    66    68     9
   64    63    66    67     9
   64    63    66    68     9
   65    63    66    67     9
   65    63    66    68     9
   63    66    68    69     9
   63    66    68    70     9
   67    66    68    69     9
   67    66    68    70     9
   66    68    70    71     9
   66    68    70    72     9
   66    68    70    73     9
   69    68    70    71     9
   69    68    70    72     9
   69    68    70    73     9
   68    70    73    74     9
   68    70    73    75     9
   71    70    73    74     9
   71    70    73    75     9
   72    70    73    74     9
   72    70    73    75     9
   70    73    75    76     9
   70    73    75    77     9
   74    73    75    76     9
   74    73    75    77     9
   73    75    77    78     9
   73    75    77    79     9
   73    75    77    80     9
   76    75    77    78     9
   76    75    77    79     9
   76    75    77    80     9
   75    77    80    81     9
   75    77    80    82     9
   78    77    80    81     9
   78    77    80    82     9
   79    77    80    81     9
   79    77    80    82     9
   77    80    82    83     9
   77    80    82    84     9
   81    80    82    83     9
   81    80    82    84     9
   80    82    84    85     9
   80    82    84    86     9
   80    82    84    87     9
   83    82    84    85     9
   83    82    84    86     9
   83    82    84    87     9
   82    84    87    88     9
   82    84    87    89     9
   82    84    87    90     9
   85    84    87    88     9
   85    84    87    89     9
   85    84    87    90     9
   86    84    87    88     9
   86    84    87    89     9
   86    84    87    90     9
   45    91    94    95     9
   45    91    94    96     9
   45    91    94    97     9
   92    91    94    95     9
   92    91    94    96     9
   92    91    94    97     9
   93    91    94    95     9
   93    91    94    96     9
   93    91    94    97     9
   91    94    97    98     9
   91    94    97    99     9
   91    94    97   100     9
   95    94    97    98     9
   95    94    97    99     9
   95    94    97   100     9
   96    94    97    98     9
   96    94    97    99     9
   96    94    97   100     9
   94    97   100   101     9
   94    97   100   102     9
   94    97   100   103     9
   98    97   100   101     9
   98    97   100   102     9
   98    97   100   103     9
   99    97   100   101     9
   99    97   100   102     9
   99    97   100   103     9
   97   100   103   104     9
   97   100   103   105     9
   97   100   103   106     9
  101   100   103   104     9
  101   100   103   105     9
  101   100   103   106     9
  102   100   103   104     9
  102   100   103   105     9
  102   100   103   106     9
  100   103   106   107     9
  100   103   106   108     9
  100   103   106   109     9
  104   103   106   107     9
  104   103   106   108     9
  104   103   106   109     9
  105   103   106   107     9
  105   103   106   108     9
  105   103   106   109     9
  103   106   109   110     9
  103   106   109   111     9
  107   106   109   110     9
  107   106   109   111     9
  108   106   109   110     9
  108   106   109   111     9
  106   109   111   112     9
  106   109   111   113     9
  110   109   111   112     9
  110   109   111   113     9
  109   111   113   114     9
  109   111   113   115     9
  109   111   113   116     9
  112   111   113   114     9
  112   111   113   115     9
  112   111   113   116     9
  111   113   116   117     9
  111   113   116   118     9
  114   113   116   117     9
  114   113   116   118     9
  115   113   116   117     9
  115   113   116   118     9
  113   116   118   119     9
  113   116   118   120     9
  117   116   118   119     9
  117   116   118   120     9
  116   118   120   121     9
  116   118   120   122     9
  116   118   120   123     9
  119   118   120   121     9
  119   118   120   122     9
  119   118   120   123     9
  118   120   123   124     9
  118   120   123   125     9
  118   120   123   126     9
  121   120   123   124     9
  121   120   123   125     9
  121   120   123   126     9
  122   120   123   124     9
  122   120   123   125     9
  122   120   123   126     9
  120   123   126   127     9
  120   123   126   128     9
  120   123   126   129     9
  124   123   126   127     9
  124   123   126   128     9
  124   123   126   129     9
  125   123   126   127     9
  125   123   126   128     9
  125   123   126   129     9
  123   126   129   130     9
  123   126   129   131     9
  123   126   129   132     9
  127   126   129   130     9
  127   126   129   131     9
  127   126   129   132     9
  128   126   129   130     9
  128   126   129   131     9
  128   126   129   132     9
  126   129   132   133     9
  126   129   132   134     9
  126   129   132   135     9
  130   129   132   133     9
  130   129   132   134     9
  130   129   132   135     9
  131   129   132   133     9
  131   129   132   134     9
  131   129   132   135     9

[ dihedrals ]
; ai	aj	ak	al	funct	q0	cq
   34    33    36    35     2
   43    42    45    44     2

#ifdef POSRES
[ position_restraints ]
   23     1     0.0             0.0            POSRES_FC_LIPID
#endif

#ifdef DIHRES
[ dihedral_restraints ]
    1    21    17    13     1     60.0      2.5       DIHRES_FC
   21    17    13     9     1    -60.0      2.5       DIHRES_FC
   17    13     9     5     1     60.0      2.5       DIHRES_FC
   13     9     5     1     1    -60.0      2.5       DIHRES_FC
    9     5     1    21     1     60.0      2.5       DIHRES_FC
    5     1    21    17     1    -60.0      2.5       DIHRES_FC
   28    39    31    33     1   -120.0      2.5       DIHRES_FC
   63    66    68    70     1      0.0      0.0       DIHRES_FC
   70    73    75    77     1      0.0      0.0       DIHRES_FC
   77    80    82    84     1      0.0      0.0       DIHRES_FC
  106   109   111   113     1      0.0      0.0       DIHRES_FC
  113   116   118   120     1      0.0      0.0       DIHRES_FC
#endif
