;;
;; Generated by CHARMM-GUI FF-Converter
;;
;; Correspondance:
;; jul316@lehigh.edu or wonpil@lehigh.edu
;;
;; GROMACS topology file for LLGTG
;;


[ moleculetype ]
; name	nrexcl
LLGTG	     3

[ atoms ]
; nr	type	resnr	residu	atom	cgnr	charge	mass
     1       CTL2    202    LLGTG     C1      1     0.080000    12.0110   ; qtot  0.080
     2       HAL2    202    LLGTG     HA      2     0.090000     1.0080   ; qtot  0.170
     3       HAL2    202    LLGTG     HB      3     0.090000     1.0080   ; qtot  0.260
     4        OSL    202    LLGTG    O11      4    -0.490000    15.9994   ; qtot -0.230
     5        OBL    202    LLGTG    O12      5    -0.630000    15.9994   ; qtot -0.860
     6         CL    202    LLGTG    C11      6     0.900000    12.0110   ; qtot  0.040
     7       CTL2    202    LLGTG    C12      7    -0.220000    12.0110   ; qtot -0.180
     8       HAL2    202    LLGTG    H2P      8     0.090000     1.0080   ; qtot -0.090
     9       HAL2    202    LLGTG    H2Q      9     0.090000     1.0080   ; qtot  0.000
    10       CTL1    202    LLGTG     C2     10     0.170000    12.0110   ; qtot  0.170
    11       HAL1    202    LLGTG     HS     11     0.090000     1.0080   ; qtot  0.260
    12        OSL    202    LLGTG    O21     12    -0.490000    15.9994   ; qtot -0.230
    13         CL    202    LLGTG    C21     13     0.900000    12.0110   ; qtot  0.670
    14        OBL    202    LLGTG    O22     14    -0.630000    15.9994   ; qtot  0.040
    15       CTL2    202    LLGTG    C22     15    -0.220000    12.0110   ; qtot -0.180
    16       HAL2    202    LLGTG    H2R     16     0.090000     1.0080   ; qtot -0.090
    17       HAL2    202    LLGTG    H2S     17     0.090000     1.0080   ; qtot  0.000
    18       CTL2    202    LLGTG     C3     18     0.080000    12.0110   ; qtot  0.080
    19       HAL2    202    LLGTG     HX     19     0.090000     1.0080   ; qtot  0.170
    20       HAL2    202    LLGTG     HY     20     0.090000     1.0080   ; qtot  0.260
    21        OSL    202    LLGTG    O31     21    -0.490000    15.9994   ; qtot -0.230
    22         CL    202    LLGTG    C31     22     0.900000    12.0110   ; qtot  0.670
    23        OBL    202    LLGTG    O32     23    -0.630000    15.9994   ; qtot  0.040
    24       CTL2    202    LLGTG    C32     24    -0.220000    12.0110   ; qtot -0.180
    25       HAL2    202    LLGTG    H2X     25     0.090000     1.0080   ; qtot -0.090
    26       HAL2    202    LLGTG    H2Y     26     0.090000     1.0080   ; qtot  0.000
    27       CTL2    202    LLGTG    C13     27    -0.180000    12.0110   ; qtot -0.180
    28       HAL2    202    LLGTG    H3P     28     0.090000     1.0080   ; qtot -0.090
    29       HAL2    202    LLGTG    H3Q     29     0.090000     1.0080   ; qtot  0.000
    30       CTL2    202    LLGTG    C14     30    -0.180000    12.0110   ; qtot -0.180
    31       HAL2    202    LLGTG    H4P     31     0.090000     1.0080   ; qtot -0.090
    32       HAL2    202    LLGTG    H4Q     32     0.090000     1.0080   ; qtot  0.000
    33       CTL2    202    LLGTG    C15     33    -0.180000    12.0110   ; qtot -0.180
    34       HAL2    202    LLGTG    H5P     34     0.090000     1.0080   ; qtot -0.090
    35       HAL2    202    LLGTG    H5Q     35     0.090000     1.0080   ; qtot  0.000
    36       CTL2    202    LLGTG    C16     36    -0.180000    12.0110   ; qtot -0.180
    37       HAL2    202    LLGTG    H6P     37     0.090000     1.0080   ; qtot -0.090
    38       HAL2    202    LLGTG    H6Q     38     0.090000     1.0080   ; qtot  0.000
    39       CTL2    202    LLGTG    C17     39    -0.180000    12.0110   ; qtot -0.180
    40       HAL2    202    LLGTG    H7P     40     0.090000     1.0080   ; qtot -0.090
    41       HAL2    202    LLGTG    H7Q     41     0.090000     1.0080   ; qtot  0.000
    42       CTL2    202    LLGTG    C18     42    -0.180000    12.0110   ; qtot -0.180
    43       HAL2    202    LLGTG    H8P     43     0.090000     1.0080   ; qtot -0.090
    44       HAL2    202    LLGTG    H8Q     44     0.090000     1.0080   ; qtot  0.000
    45       CEL1    202    LLGTG    C19     45    -0.150000    12.0110   ; qtot -0.150
    46       HEL1    202    LLGTG    H9P     46     0.150000     1.0080   ; qtot  0.000
    47       CEL1    202    LLGTG   C110     47    -0.150000    12.0110   ; qtot -0.150
    48       HEL1    202    LLGTG   H10P     48     0.150000     1.0080   ; qtot  0.000
    49       CTL2    202    LLGTG   C111     49    -0.180000    12.0110   ; qtot -0.180
    50       HAL2    202    LLGTG   H11P     50     0.090000     1.0080   ; qtot -0.090
    51       HAL2    202    LLGTG   H11Q     51     0.090000     1.0080   ; qtot  0.000
    52       CEL1    202    LLGTG   C112     52    -0.150000    12.0110   ; qtot -0.150
    53       HEL1    202    LLGTG   H12P     53     0.150000     1.0080   ; qtot  0.000
    54       CEL1    202    LLGTG   C113     54    -0.150000    12.0110   ; qtot -0.150
    55       HEL1    202    LLGTG   H13P     55     0.150000     1.0080   ; qtot  0.000
    56       CTL2    202    LLGTG   C114     56    -0.180000    12.0110   ; qtot -0.180
    57       HAL2    202    LLGTG   H14P     57     0.090000     1.0080   ; qtot -0.090
    58       HAL2    202    LLGTG   H14Q     58     0.090000     1.0080   ; qtot  0.000
    59       CTL2    202    LLGTG   C115     59    -0.180000    12.0110   ; qtot -0.180
    60       HAL2    202    LLGTG   H15P     60     0.090000     1.0080   ; qtot -0.090
    61       HAL2    202    LLGTG   H15Q     61     0.090000     1.0080   ; qtot  0.000
    62       CTL2    202    LLGTG   C116     62    -0.180000    12.0110   ; qtot -0.180
    63       HAL2    202    LLGTG   H16P     63     0.090000     1.0080   ; qtot -0.090
    64       HAL2    202    LLGTG   H16Q     64     0.090000     1.0080   ; qtot  0.000
    65       CTL2    202    LLGTG   C117     65    -0.180000    12.0110   ; qtot -0.180
    66       HAL2    202    LLGTG   H17P     66     0.090000     1.0080   ; qtot -0.090
    67       HAL2    202    LLGTG   H17Q     67     0.090000     1.0080   ; qtot  0.000
    68       CTL3    202    LLGTG   C118     68    -0.270000    12.0110   ; qtot -0.270
    69       HAL3    202    LLGTG   H18P     69     0.090000     1.0080   ; qtot -0.180
    70       HAL3    202    LLGTG   H18Q     70     0.090000     1.0080   ; qtot -0.090
    71       HAL3    202    LLGTG   H18O     71     0.090000     1.0080   ; qtot -0.000
    72       CTL2    202    LLGTG    C23     72    -0.180000    12.0110   ; qtot -0.180
    73       HAL2    202    LLGTG    H3R     73     0.090000     1.0080   ; qtot -0.090
    74       HAL2    202    LLGTG    H3S     74     0.090000     1.0080   ; qtot -0.000
    75       CTL2    202    LLGTG    C24     75    -0.180000    12.0110   ; qtot -0.180
    76       HAL2    202    LLGTG    H4R     76     0.090000     1.0080   ; qtot -0.090
    77       HAL2    202    LLGTG    H4S     77     0.090000     1.0080   ; qtot -0.000
    78       CTL2    202    LLGTG    C25     78    -0.180000    12.0110   ; qtot -0.180
    79       HAL2    202    LLGTG    H5R     79     0.090000     1.0080   ; qtot -0.090
    80       HAL2    202    LLGTG    H5S     80     0.090000     1.0080   ; qtot -0.000
    81       CTL2    202    LLGTG    C26     81    -0.180000    12.0110   ; qtot -0.180
    82       HAL2    202    LLGTG    H6R     82     0.090000     1.0080   ; qtot -0.090
    83       HAL2    202    LLGTG    H6S     83     0.090000     1.0080   ; qtot -0.000
    84       CTL2    202    LLGTG    C27     84    -0.180000    12.0110   ; qtot -0.180
    85       HAL2    202    LLGTG    H7R     85     0.090000     1.0080   ; qtot -0.090
    86       HAL2    202    LLGTG    H7S     86     0.090000     1.0080   ; qtot -0.000
    87       CTL2    202    LLGTG    C28     87    -0.180000    12.0110   ; qtot -0.180
    88       HAL2    202    LLGTG    H8R     88     0.090000     1.0080   ; qtot -0.090
    89       HAL2    202    LLGTG    H8S     89     0.090000     1.0080   ; qtot -0.000
    90       CEL1    202    LLGTG    C29     90    -0.150000    12.0110   ; qtot -0.150
    91       HEL1    202    LLGTG    H9R     91     0.150000     1.0080   ; qtot -0.000
    92       CEL1    202    LLGTG   C210     92    -0.150000    12.0110   ; qtot -0.150
    93       HEL1    202    LLGTG   H10R     93     0.150000     1.0080   ; qtot -0.000
    94       CTL2    202    LLGTG   C211     94    -0.180000    12.0110   ; qtot -0.180
    95       HAL2    202    LLGTG   H11R     95     0.090000     1.0080   ; qtot -0.090
    96       HAL2    202    LLGTG   H11S     96     0.090000     1.0080   ; qtot -0.000
    97       CEL1    202    LLGTG   C212     97    -0.150000    12.0110   ; qtot -0.150
    98       HEL1    202    LLGTG   H12R     98     0.150000     1.0080   ; qtot -0.000
    99       CEL1    202    LLGTG   C213     99    -0.150000    12.0110   ; qtot -0.150
   100       HEL1    202    LLGTG   H13R    100     0.150000     1.0080   ; qtot -0.000
   101       CTL2    202    LLGTG   C214    101    -0.180000    12.0110   ; qtot -0.180
   102       HAL2    202    LLGTG   H14R    102     0.090000     1.0080   ; qtot -0.090
   103       HAL2    202    LLGTG   H14S    103     0.090000     1.0080   ; qtot -0.000
   104       CTL2    202    LLGTG   C215    104    -0.180000    12.0110   ; qtot -0.180
   105       HAL2    202    LLGTG   H15R    105     0.090000     1.0080   ; qtot -0.090
   106       HAL2    202    LLGTG   H15S    106     0.090000     1.0080   ; qtot -0.000
   107       CTL2    202    LLGTG   C216    107    -0.180000    12.0110   ; qtot -0.180
   108       HAL2    202    LLGTG   H16R    108     0.090000     1.0080   ; qtot -0.090
   109       HAL2    202    LLGTG   H16S    109     0.090000     1.0080   ; qtot -0.000
   110       CTL2    202    LLGTG   C217    110    -0.180000    12.0110   ; qtot -0.180
   111       HAL2    202    LLGTG   H17R    111     0.090000     1.0080   ; qtot -0.090
   112       HAL2    202    LLGTG   H17S    112     0.090000     1.0080   ; qtot -0.000
   113       CTL3    202    LLGTG   C218    113    -0.270000    12.0110   ; qtot -0.270
   114       HAL3    202    LLGTG   H18R    114     0.090000     1.0080   ; qtot -0.180
   115       HAL3    202    LLGTG   H18S    115     0.090000     1.0080   ; qtot -0.090
   116       HAL3    202    LLGTG   H18T    116     0.090000     1.0080   ; qtot -0.000
   117       CTL2    202    LLGTG    C33    117    -0.180000    12.0110   ; qtot -0.180
   118       HAL2    202    LLGTG    H3X    118     0.090000     1.0080   ; qtot -0.090
   119       HAL2    202    LLGTG    H3Y    119     0.090000     1.0080   ; qtot -0.000
   120       CTL2    202    LLGTG    C34    120    -0.180000    12.0110   ; qtot -0.180
   121       HAL2    202    LLGTG    H4X    121     0.090000     1.0080   ; qtot -0.090
   122       HAL2    202    LLGTG    H4Y    122     0.090000     1.0080   ; qtot -0.000
   123       CTL2    202    LLGTG    C35    123    -0.180000    12.0110   ; qtot -0.180
   124       HAL2    202    LLGTG    H5X    124     0.090000     1.0080   ; qtot -0.090
   125       HAL2    202    LLGTG    H5Y    125     0.090000     1.0080   ; qtot -0.000
   126       CTL2    202    LLGTG    C36    126    -0.180000    12.0110   ; qtot -0.180
   127       HAL2    202    LLGTG    H6X    127     0.090000     1.0080   ; qtot -0.090
   128       HAL2    202    LLGTG    H6Y    128     0.090000     1.0080   ; qtot -0.000
   129       CTL2    202    LLGTG    C37    129    -0.180000    12.0110   ; qtot -0.180
   130       HAL2    202    LLGTG    H7X    130     0.090000     1.0080   ; qtot -0.090
   131       HAL2    202    LLGTG    H7Y    131     0.090000     1.0080   ; qtot -0.000
   132       CTL2    202    LLGTG    C38    132    -0.180000    12.0110   ; qtot -0.180
   133       HAL2    202    LLGTG    H8X    133     0.090000     1.0080   ; qtot -0.090
   134       HAL2    202    LLGTG    H8Y    134     0.090000     1.0080   ; qtot -0.000
   135       CTL2    202    LLGTG    C39    135    -0.180000    12.0110   ; qtot -0.180
   136       HAL2    202    LLGTG    H9X    136     0.090000     1.0080   ; qtot -0.090
   137       HAL2    202    LLGTG    H9Y    137     0.090000     1.0080   ; qtot -0.000
   138       CTL2    202    LLGTG   C310    138    -0.180000    12.0110   ; qtot -0.180
   139       HAL2    202    LLGTG   H10X    139     0.090000     1.0080   ; qtot -0.090
   140       HAL2    202    LLGTG   H10Y    140     0.090000     1.0080   ; qtot -0.000
   141       CEL1    202    LLGTG   C311    141    -0.150000    12.0110   ; qtot -0.150
   142       HEL1    202    LLGTG   H11X    142     0.150000     1.0080   ; qtot -0.000
   143       CEL1    202    LLGTG   C312    143    -0.150000    12.0110   ; qtot -0.150
   144       HEL1    202    LLGTG   H12X    144     0.150000     1.0080   ; qtot -0.000
   145       CTL2    202    LLGTG   C313    145    -0.180000    12.0110   ; qtot -0.180
   146       HAL2    202    LLGTG   H13X    146     0.090000     1.0080   ; qtot -0.090
   147       HAL2    202    LLGTG   H13Y    147     0.090000     1.0080   ; qtot -0.000
   148       CTL2    202    LLGTG   C314    148    -0.180000    12.0110   ; qtot -0.180
   149       HAL2    202    LLGTG   H14X    149     0.090000     1.0080   ; qtot -0.090
   150       HAL2    202    LLGTG   H14Y    150     0.090000     1.0080   ; qtot -0.000
   151       CTL2    202    LLGTG   C315    151    -0.180000    12.0110   ; qtot -0.180
   152       HAL2    202    LLGTG   H15X    152     0.090000     1.0080   ; qtot -0.090
   153       HAL2    202    LLGTG   H15Y    153     0.090000     1.0080   ; qtot -0.000
   154       CTL2    202    LLGTG   C316    154    -0.180000    12.0110   ; qtot -0.180
   155       HAL2    202    LLGTG   H16X    155     0.090000     1.0080   ; qtot -0.090
   156       HAL2    202    LLGTG   H16Y    156     0.090000     1.0080   ; qtot -0.000
   157       CTL2    202    LLGTG   C317    157    -0.180000    12.0110   ; qtot -0.180
   158       HAL2    202    LLGTG   H17X    158     0.090000     1.0080   ; qtot -0.090
   159       HAL2    202    LLGTG   H17Y    159     0.090000     1.0080   ; qtot -0.000
   160       CTL2    202    LLGTG   C318    160    -0.180000    12.0110   ; qtot -0.180
   161       HAL2    202    LLGTG   H18X    161     0.090000     1.0080   ; qtot -0.090
   162       HAL2    202    LLGTG   H18Y    162     0.090000     1.0080   ; qtot -0.000
   163       CTL2    202    LLGTG   C319    163    -0.180000    12.0110   ; qtot -0.180
   164       HAL2    202    LLGTG   H19X    164     0.090000     1.0080   ; qtot -0.090
   165       HAL2    202    LLGTG   H19Y    165     0.090000     1.0080   ; qtot -0.000
   166       CTL3    202    LLGTG   C320    166    -0.270000    12.0110   ; qtot -0.270
   167       HAL3    202    LLGTG   H20X    167     0.090000     1.0080   ; qtot -0.180
   168       HAL3    202    LLGTG   H20Y    168     0.090000     1.0080   ; qtot -0.090
   169       HAL3    202    LLGTG   H20Z    169     0.090000     1.0080   ; qtot -0.000

[ bonds ]
; ai	aj	funct	b0	Kb
    1     2     1
    1     3     1
    1     4     1
    1    10     1
    4     6     1
    6     5     1
    6     7     1
    7     8     1
    7     9     1
    7    27     1
   10    11     1
   10    12     1
   10    18     1
   12    13     1
   13    14     1
   13    15     1
   15    16     1
   15    17     1
   15    72     1
   18    19     1
   18    20     1
   18    21     1
   21    22     1
   22    23     1
   22    24     1
   24    25     1
   24    26     1
   24   117     1
   27    28     1
   27    29     1
   27    30     1
   30    31     1
   30    32     1
   30    33     1
   33    34     1
   33    35     1
   33    36     1
   36    37     1
   36    38     1
   36    39     1
   39    40     1
   39    41     1
   39    42     1
   42    43     1
   42    44     1
   42    45     1
   45    46     1
   45    47     1
   47    48     1
   47    49     1
   49    50     1
   49    51     1
   49    52     1
   52    53     1
   52    54     1
   54    55     1
   54    56     1
   56    57     1
   56    58     1
   56    59     1
   59    60     1
   59    61     1
   59    62     1
   62    63     1
   62    64     1
   62    65     1
   65    66     1
   65    67     1
   65    68     1
   68    69     1
   68    70     1
   68    71     1
   72    73     1
   72    74     1
   72    75     1
   75    76     1
   75    77     1
   75    78     1
   78    79     1
   78    80     1
   78    81     1
   81    82     1
   81    83     1
   81    84     1
   84    85     1
   84    86     1
   84    87     1
   87    88     1
   87    89     1
   87    90     1
   90    91     1
   90    92     1
   92    93     1
   92    94     1
   94    95     1
   94    96     1
   94    97     1
   97    98     1
   97    99     1
   99   100     1
   99   101     1
  101   102     1
  101   103     1
  101   104     1
  104   105     1
  104   106     1
  104   107     1
  107   108     1
  107   109     1
  107   110     1
  110   111     1
  110   112     1
  110   113     1
  113   114     1
  113   115     1
  113   116     1
  117   118     1
  117   119     1
  117   120     1
  120   121     1
  120   122     1
  120   123     1
  123   124     1
  123   125     1
  123   126     1
  126   127     1
  126   128     1
  126   129     1
  129   130     1
  129   131     1
  129   132     1
  132   133     1
  132   134     1
  132   135     1
  135   136     1
  135   137     1
  135   138     1
  138   139     1
  138   140     1
  138   141     1
  141   142     1
  141   143     1
  143   144     1
  143   145     1
  145   146     1
  145   147     1
  145   148     1
  148   149     1
  148   150     1
  148   151     1
  151   152     1
  151   153     1
  151   154     1
  154   155     1
  154   156     1
  154   157     1
  157   158     1
  157   159     1
  157   160     1
  160   161     1
  160   162     1
  160   163     1
  163   164     1
  163   165     1
  163   166     1
  166   167     1
  166   168     1
  166   169     1

[ pairs ]
; ai	aj	funct	c6	c12 or
; ai	aj	funct	fudgeQQ	q1	q2	c6	c12
    1     5     1
    1     7     1
    1    13     1
    1    19     1
    1    20     1
    1    21     1
    2     6     1
    2    11     1
    2    12     1
    2    18     1
    3     6     1
    3    11     1
    3    12     1
    3    18     1
    4     8     1
    4     9     1
    4    11     1
    4    12     1
    4    18     1
    4    27     1
    5     8     1
    5     9     1
    5    27     1
    6    10     1
    6    28     1
    6    29     1
    6    30     1
    7    31     1
    7    32     1
    7    33     1
    8    28     1
    8    29     1
    8    30     1
    9    28     1
    9    29     1
    9    30     1
   10    14     1
   10    15     1
   10    22     1
   11    13     1
   11    19     1
   11    20     1
   11    21     1
   12    16     1
   12    17     1
   12    19     1
   12    20     1
   12    21     1
   12    72     1
   13    18     1
   13    73     1
   13    74     1
   13    75     1
   14    16     1
   14    17     1
   14    72     1
   15    76     1
   15    77     1
   15    78     1
   16    73     1
   16    74     1
   16    75     1
   17    73     1
   17    74     1
   17    75     1
   18    23     1
   18    24     1
   19    22     1
   20    22     1
   21    25     1
   21    26     1
   21   117     1
   22   118     1
   22   119     1
   22   120     1
   23    25     1
   23    26     1
   23   117     1
   24   121     1
   24   122     1
   24   123     1
   25   118     1
   25   119     1
   25   120     1
   26   118     1
   26   119     1
   26   120     1
   27    34     1
   27    35     1
   27    36     1
   28    31     1
   28    32     1
   28    33     1
   29    31     1
   29    32     1
   29    33     1
   30    37     1
   30    38     1
   30    39     1
   31    34     1
   31    35     1
   31    36     1
   32    34     1
   32    35     1
   32    36     1
   33    40     1
   33    41     1
   33    42     1
   34    37     1
   34    38     1
   34    39     1
   35    37     1
   35    38     1
   35    39     1
   36    43     1
   36    44     1
   36    45     1
   37    40     1
   37    41     1
   37    42     1
   38    40     1
   38    41     1
   38    42     1
   39    46     1
   39    47     1
   40    43     1
   40    44     1
   40    45     1
   41    43     1
   41    44     1
   41    45     1
   42    48     1
   42    49     1
   43    46     1
   43    47     1
   44    46     1
   44    47     1
   45    50     1
   45    51     1
   45    52     1
   46    48     1
   46    49     1
   47    53     1
   47    54     1
   48    50     1
   48    51     1
   48    52     1
   49    55     1
   49    56     1
   50    53     1
   50    54     1
   51    53     1
   51    54     1
   52    57     1
   52    58     1
   52    59     1
   53    55     1
   53    56     1
   54    60     1
   54    61     1
   54    62     1
   55    57     1
   55    58     1
   55    59     1
   56    63     1
   56    64     1
   56    65     1
   57    60     1
   57    61     1
   57    62     1
   58    60     1
   58    61     1
   58    62     1
   59    66     1
   59    67     1
   59    68     1
   60    63     1
   60    64     1
   60    65     1
   61    63     1
   61    64     1
   61    65     1
   62    69     1
   62    70     1
   62    71     1
   63    66     1
   63    67     1
   63    68     1
   64    66     1
   64    67     1
   64    68     1
   66    69     1
   66    70     1
   66    71     1
   67    69     1
   67    70     1
   67    71     1
   72    79     1
   72    80     1
   72    81     1
   73    76     1
   73    77     1
   73    78     1
   74    76     1
   74    77     1
   74    78     1
   75    82     1
   75    83     1
   75    84     1
   76    79     1
   76    80     1
   76    81     1
   77    79     1
   77    80     1
   77    81     1
   78    85     1
   78    86     1
   78    87     1
   79    82     1
   79    83     1
   79    84     1
   80    82     1
   80    83     1
   80    84     1
   81    88     1
   81    89     1
   81    90     1
   82    85     1
   82    86     1
   82    87     1
   83    85     1
   83    86     1
   83    87     1
   84    91     1
   84    92     1
   85    88     1
   85    89     1
   85    90     1
   86    88     1
   86    89     1
   86    90     1
   87    93     1
   87    94     1
   88    91     1
   88    92     1
   89    91     1
   89    92     1
   90    95     1
   90    96     1
   90    97     1
   91    93     1
   91    94     1
   92    98     1
   92    99     1
   93    95     1
   93    96     1
   93    97     1
   94   100     1
   94   101     1
   95    98     1
   95    99     1
   96    98     1
   96    99     1
   97   102     1
   97   103     1
   97   104     1
   98   100     1
   98   101     1
   99   105     1
   99   106     1
   99   107     1
  100   102     1
  100   103     1
  100   104     1
  101   108     1
  101   109     1
  101   110     1
  102   105     1
  102   106     1
  102   107     1
  103   105     1
  103   106     1
  103   107     1
  104   111     1
  104   112     1
  104   113     1
  105   108     1
  105   109     1
  105   110     1
  106   108     1
  106   109     1
  106   110     1
  107   114     1
  107   115     1
  107   116     1
  108   111     1
  108   112     1
  108   113     1
  109   111     1
  109   112     1
  109   113     1
  111   114     1
  111   115     1
  111   116     1
  112   114     1
  112   115     1
  112   116     1
  117   124     1
  117   125     1
  117   126     1
  118   121     1
  118   122     1
  118   123     1
  119   121     1
  119   122     1
  119   123     1
  120   127     1
  120   128     1
  120   129     1
  121   124     1
  121   125     1
  121   126     1
  122   124     1
  122   125     1
  122   126     1
  123   130     1
  123   131     1
  123   132     1
  124   127     1
  124   128     1
  124   129     1
  125   127     1
  125   128     1
  125   129     1
  126   133     1
  126   134     1
  126   135     1
  127   130     1
  127   131     1
  127   132     1
  128   130     1
  128   131     1
  128   132     1
  129   136     1
  129   137     1
  129   138     1
  130   133     1
  130   134     1
  130   135     1
  131   133     1
  131   134     1
  131   135     1
  132   139     1
  132   140     1
  132   141     1
  133   136     1
  133   137     1
  133   138     1
  134   136     1
  134   137     1
  134   138     1
  135   142     1
  135   143     1
  136   139     1
  136   140     1
  136   141     1
  137   139     1
  137   140     1
  137   141     1
  138   144     1
  138   145     1
  139   142     1
  139   143     1
  140   142     1
  140   143     1
  141   146     1
  141   147     1
  141   148     1
  142   144     1
  142   145     1
  143   149     1
  143   150     1
  143   151     1
  144   146     1
  144   147     1
  144   148     1
  145   152     1
  145   153     1
  145   154     1
  146   149     1
  146   150     1
  146   151     1
  147   149     1
  147   150     1
  147   151     1
  148   155     1
  148   156     1
  148   157     1
  149   152     1
  149   153     1
  149   154     1
  150   152     1
  150   153     1
  150   154     1
  151   158     1
  151   159     1
  151   160     1
  152   155     1
  152   156     1
  152   157     1
  153   155     1
  153   156     1
  153   157     1
  154   161     1
  154   162     1
  154   163     1
  155   158     1
  155   159     1
  155   160     1
  156   158     1
  156   159     1
  156   160     1
  157   164     1
  157   165     1
  157   166     1
  158   161     1
  158   162     1
  158   163     1
  159   161     1
  159   162     1
  159   163     1
  160   167     1
  160   168     1
  160   169     1
  161   164     1
  161   165     1
  161   166     1
  162   164     1
  162   165     1
  162   166     1
  164   167     1
  164   168     1
  164   169     1
  165   167     1
  165   168     1
  165   169     1

[ angles ] 
; ai	aj	ak	funct	th0	cth	S0	Kub
    2     1     3     5
    2     1     4     5
    2     1    10     5
    3     1     4     5
    3     1    10     5
    4     1    10     5
    1     4     6     5
    4     6     5     5
    4     6     7     5
    5     6     7     5
    6     7     8     5
    6     7     9     5
    6     7    27     5
    8     7     9     5
    8     7    27     5
    9     7    27     5
    1    10    11     5
    1    10    12     5
    1    10    18     5
   11    10    12     5
   11    10    18     5
   12    10    18     5
   10    12    13     5
   12    13    14     5
   12    13    15     5
   14    13    15     5
   13    15    16     5
   13    15    17     5
   13    15    72     5
   16    15    17     5
   16    15    72     5
   17    15    72     5
   10    18    19     5
   10    18    20     5
   10    18    21     5
   19    18    20     5
   19    18    21     5
   20    18    21     5
   18    21    22     5
   21    22    23     5
   21    22    24     5
   23    22    24     5
   22    24    25     5
   22    24    26     5
   22    24   117     5
   25    24    26     5
   25    24   117     5
   26    24   117     5
    7    27    28     5
    7    27    29     5
    7    27    30     5
   28    27    29     5
   28    27    30     5
   29    27    30     5
   27    30    31     5
   27    30    32     5
   27    30    33     5
   31    30    32     5
   31    30    33     5
   32    30    33     5
   30    33    34     5
   30    33    35     5
   30    33    36     5
   34    33    35     5
   34    33    36     5
   35    33    36     5
   33    36    37     5
   33    36    38     5
   33    36    39     5
   37    36    38     5
   37    36    39     5
   38    36    39     5
   36    39    40     5
   36    39    41     5
   36    39    42     5
   40    39    41     5
   40    39    42     5
   41    39    42     5
   39    42    43     5
   39    42    44     5
   39    42    45     5
   43    42    44     5
   43    42    45     5
   44    42    45     5
   42    45    46     5
   42    45    47     5
   46    45    47     5
   45    47    48     5
   45    47    49     5
   48    47    49     5
   47    49    50     5
   47    49    51     5
   47    49    52     5
   50    49    51     5
   50    49    52     5
   51    49    52     5
   49    52    53     5
   49    52    54     5
   53    52    54     5
   52    54    55     5
   52    54    56     5
   55    54    56     5
   54    56    57     5
   54    56    58     5
   54    56    59     5
   57    56    58     5
   57    56    59     5
   58    56    59     5
   56    59    60     5
   56    59    61     5
   56    59    62     5
   60    59    61     5
   60    59    62     5
   61    59    62     5
   59    62    63     5
   59    62    64     5
   59    62    65     5
   63    62    64     5
   63    62    65     5
   64    62    65     5
   62    65    66     5
   62    65    67     5
   62    65    68     5
   66    65    67     5
   66    65    68     5
   67    65    68     5
   65    68    69     5
   65    68    70     5
   65    68    71     5
   69    68    70     5
   69    68    71     5
   70    68    71     5
   15    72    73     5
   15    72    74     5
   15    72    75     5
   73    72    74     5
   73    72    75     5
   74    72    75     5
   72    75    76     5
   72    75    77     5
   72    75    78     5
   76    75    77     5
   76    75    78     5
   77    75    78     5
   75    78    79     5
   75    78    80     5
   75    78    81     5
   79    78    80     5
   79    78    81     5
   80    78    81     5
   78    81    82     5
   78    81    83     5
   78    81    84     5
   82    81    83     5
   82    81    84     5
   83    81    84     5
   81    84    85     5
   81    84    86     5
   81    84    87     5
   85    84    86     5
   85    84    87     5
   86    84    87     5
   84    87    88     5
   84    87    89     5
   84    87    90     5
   88    87    89     5
   88    87    90     5
   89    87    90     5
   87    90    91     5
   87    90    92     5
   91    90    92     5
   90    92    93     5
   90    92    94     5
   93    92    94     5
   92    94    95     5
   92    94    96     5
   92    94    97     5
   95    94    96     5
   95    94    97     5
   96    94    97     5
   94    97    98     5
   94    97    99     5
   98    97    99     5
   97    99   100     5
   97    99   101     5
  100    99   101     5
   99   101   102     5
   99   101   103     5
   99   101   104     5
  102   101   103     5
  102   101   104     5
  103   101   104     5
  101   104   105     5
  101   104   106     5
  101   104   107     5
  105   104   106     5
  105   104   107     5
  106   104   107     5
  104   107   108     5
  104   107   109     5
  104   107   110     5
  108   107   109     5
  108   107   110     5
  109   107   110     5
  107   110   111     5
  107   110   112     5
  107   110   113     5
  111   110   112     5
  111   110   113     5
  112   110   113     5
  110   113   114     5
  110   113   115     5
  110   113   116     5
  114   113   115     5
  114   113   116     5
  115   113   116     5
   24   117   118     5
   24   117   119     5
   24   117   120     5
  118   117   119     5
  118   117   120     5
  119   117   120     5
  117   120   121     5
  117   120   122     5
  117   120   123     5
  121   120   122     5
  121   120   123     5
  122   120   123     5
  120   123   124     5
  120   123   125     5
  120   123   126     5
  124   123   125     5
  124   123   126     5
  125   123   126     5
  123   126   127     5
  123   126   128     5
  123   126   129     5
  127   126   128     5
  127   126   129     5
  128   126   129     5
  126   129   130     5
  126   129   131     5
  126   129   132     5
  130   129   131     5
  130   129   132     5
  131   129   132     5
  129   132   133     5
  129   132   134     5
  129   132   135     5
  133   132   134     5
  133   132   135     5
  134   132   135     5
  132   135   136     5
  132   135   137     5
  132   135   138     5
  136   135   137     5
  136   135   138     5
  137   135   138     5
  135   138   139     5
  135   138   140     5
  135   138   141     5
  139   138   140     5
  139   138   141     5
  140   138   141     5
  138   141   142     5
  138   141   143     5
  142   141   143     5
  141   143   144     5
  141   143   145     5
  144   143   145     5
  143   145   146     5
  143   145   147     5
  143   145   148     5
  146   145   147     5
  146   145   148     5
  147   145   148     5
  145   148   149     5
  145   148   150     5
  145   148   151     5
  149   148   150     5
  149   148   151     5
  150   148   151     5
  148   151   152     5
  148   151   153     5
  148   151   154     5
  152   151   153     5
  152   151   154     5
  153   151   154     5
  151   154   155     5
  151   154   156     5
  151   154   157     5
  155   154   156     5
  155   154   157     5
  156   154   157     5
  154   157   158     5
  154   157   159     5
  154   157   160     5
  158   157   159     5
  158   157   160     5
  159   157   160     5
  157   160   161     5
  157   160   162     5
  157   160   163     5
  161   160   162     5
  161   160   163     5
  162   160   163     5
  160   163   164     5
  160   163   165     5
  160   163   166     5
  164   163   165     5
  164   163   166     5
  165   163   166     5
  163   166   167     5
  163   166   168     5
  163   166   169     5
  167   166   168     5
  167   166   169     5
  168   166   169     5

[ dihedrals ]
; ai	aj	ak	al	funct	phi0	cp	mult
    2     1     4     6     9
    3     1     4     6     9
    2     1    10    11     9
    2     1    10    12     9
    2     1    10    18     9
    3     1    10    11     9
    3     1    10    12     9
    3     1    10    18     9
    4     1    10    11     9
    4     1    10    12     9
    4     1    10    18     9
    6     4     1    10     9
    1     4     6     5     9
    1     4     6     7     9
    4     6     7     8     9
    4     6     7     9     9
    4     6     7    27     9
    5     6     7     8     9
    5     6     7     9     9
    5     6     7    27     9
    6     7    27    28     9
    6     7    27    29     9
    6     7    27    30     9
    8     7    27    28     9
    8     7    27    29     9
    8     7    27    30     9
    9     7    27    28     9
    9     7    27    29     9
    9     7    27    30     9
    1    10    12    13     9
   11    10    12    13     9
    1    10    18    19     9
    1    10    18    20     9
    1    10    18    21     9
   11    10    18    19     9
   11    10    18    20     9
   11    10    18    21     9
   12    10    18    19     9
   12    10    18    20     9
   12    10    18    21     9
   13    12    10    18     9
   10    12    13    14     9
   10    12    13    15     9
   12    13    15    16     9
   12    13    15    17     9
   12    13    15    72     9
   14    13    15    16     9
   14    13    15    17     9
   14    13    15    72     9
   13    15    72    73     9
   13    15    72    74     9
   13    15    72    75     9
   16    15    72    73     9
   16    15    72    74     9
   16    15    72    75     9
   17    15    72    73     9
   17    15    72    74     9
   17    15    72    75     9
   10    18    21    22     9
   19    18    21    22     9
   20    18    21    22     9
   18    21    22    23     9
   18    21    22    24     9
   21    22    24    25     9
   21    22    24    26     9
   21    22    24   117     9
   23    22    24    25     9
   23    22    24    26     9
   23    22    24   117     9
   22    24   117   118     9
   22    24   117   119     9
   22    24   117   120     9
   25    24   117   118     9
   25    24   117   119     9
   25    24   117   120     9
   26    24   117   118     9
   26    24   117   119     9
   26    24   117   120     9
    7    27    30    31     9
    7    27    30    32     9
    7    27    30    33     9
   28    27    30    31     9
   28    27    30    32     9
   28    27    30    33     9
   29    27    30    31     9
   29    27    30    32     9
   29    27    30    33     9
   27    30    33    34     9
   27    30    33    35     9
   27    30    33    36     9
   31    30    33    34     9
   31    30    33    35     9
   31    30    33    36     9
   32    30    33    34     9
   32    30    33    35     9
   32    30    33    36     9
   30    33    36    37     9
   30    33    36    38     9
   30    33    36    39     9
   34    33    36    37     9
   34    33    36    38     9
   34    33    36    39     9
   35    33    36    37     9
   35    33    36    38     9
   35    33    36    39     9
   33    36    39    40     9
   33    36    39    41     9
   33    36    39    42     9
   37    36    39    40     9
   37    36    39    41     9
   37    36    39    42     9
   38    36    39    40     9
   38    36    39    41     9
   38    36    39    42     9
   36    39    42    43     9
   36    39    42    44     9
   36    39    42    45     9
   40    39    42    43     9
   40    39    42    44     9
   40    39    42    45     9
   41    39    42    43     9
   41    39    42    44     9
   41    39    42    45     9
   39    42    45    46     9
   39    42    45    47     9
   43    42    45    46     9
   43    42    45    47     9
   44    42    45    46     9
   44    42    45    47     9
   42    45    47    48     9
   42    45    47    49     9
   46    45    47    48     9
   46    45    47    49     9
   45    47    49    50     9
   45    47    49    51     9
   45    47    49    52     9
   48    47    49    50     9
   48    47    49    51     9
   48    47    49    52     9
   47    49    52    53     9
   47    49    52    54     9
   50    49    52    53     9
   50    49    52    54     9
   51    49    52    53     9
   51    49    52    54     9
   49    52    54    55     9
   49    52    54    56     9
   53    52    54    55     9
   53    52    54    56     9
   52    54    56    57     9
   52    54    56    58     9
   52    54    56    59     9
   55    54    56    57     9
   55    54    56    58     9
   55    54    56    59     9
   54    56    59    60     9
   54    56    59    61     9
   54    56    59    62     9
   57    56    59    60     9
   57    56    59    61     9
   57    56    59    62     9
   58    56    59    60     9
   58    56    59    61     9
   58    56    59    62     9
   56    59    62    63     9
   56    59    62    64     9
   56    59    62    65     9
   60    59    62    63     9
   60    59    62    64     9
   60    59    62    65     9
   61    59    62    63     9
   61    59    62    64     9
   61    59    62    65     9
   59    62    65    66     9
   59    62    65    67     9
   59    62    65    68     9
   63    62    65    66     9
   63    62    65    67     9
   63    62    65    68     9
   64    62    65    66     9
   64    62    65    67     9
   64    62    65    68     9
   62    65    68    69     9
   62    65    68    70     9
   62    65    68    71     9
   66    65    68    69     9
   66    65    68    70     9
   66    65    68    71     9
   67    65    68    69     9
   67    65    68    70     9
   67    65    68    71     9
   15    72    75    76     9
   15    72    75    77     9
   15    72    75    78     9
   73    72    75    76     9
   73    72    75    77     9
   73    72    75    78     9
   74    72    75    76     9
   74    72    75    77     9
   74    72    75    78     9
   72    75    78    79     9
   72    75    78    80     9
   72    75    78    81     9
   76    75    78    79     9
   76    75    78    80     9
   76    75    78    81     9
   77    75    78    79     9
   77    75    78    80     9
   77    75    78    81     9
   75    78    81    82     9
   75    78    81    83     9
   75    78    81    84     9
   79    78    81    82     9
   79    78    81    83     9
   79    78    81    84     9
   80    78    81    82     9
   80    78    81    83     9
   80    78    81    84     9
   78    81    84    85     9
   78    81    84    86     9
   78    81    84    87     9
   82    81    84    85     9
   82    81    84    86     9
   82    81    84    87     9
   83    81    84    85     9
   83    81    84    86     9
   83    81    84    87     9
   81    84    87    88     9
   81    84    87    89     9
   81    84    87    90     9
   85    84    87    88     9
   85    84    87    89     9
   85    84    87    90     9
   86    84    87    88     9
   86    84    87    89     9
   86    84    87    90     9
   84    87    90    91     9
   84    87    90    92     9
   88    87    90    91     9
   88    87    90    92     9
   89    87    90    91     9
   89    87    90    92     9
   87    90    92    93     9
   87    90    92    94     9
   91    90    92    93     9
   91    90    92    94     9
   90    92    94    95     9
   90    92    94    96     9
   90    92    94    97     9
   93    92    94    95     9
   93    92    94    96     9
   93    92    94    97     9
   92    94    97    98     9
   92    94    97    99     9
   95    94    97    98     9
   95    94    97    99     9
   96    94    97    98     9
   96    94    97    99     9
   94    97    99   100     9
   94    97    99   101     9
   98    97    99   100     9
   98    97    99   101     9
   97    99   101   102     9
   97    99   101   103     9
   97    99   101   104     9
  100    99   101   102     9
  100    99   101   103     9
  100    99   101   104     9
   99   101   104   105     9
   99   101   104   106     9
   99   101   104   107     9
  102   101   104   105     9
  102   101   104   106     9
  102   101   104   107     9
  103   101   104   105     9
  103   101   104   106     9
  103   101   104   107     9
  101   104   107   108     9
  101   104   107   109     9
  101   104   107   110     9
  105   104   107   108     9
  105   104   107   109     9
  105   104   107   110     9
  106   104   107   108     9
  106   104   107   109     9
  106   104   107   110     9
  104   107   110   111     9
  104   107   110   112     9
  104   107   110   113     9
  108   107   110   111     9
  108   107   110   112     9
  108   107   110   113     9
  109   107   110   111     9
  109   107   110   112     9
  109   107   110   113     9
  107   110   113   114     9
  107   110   113   115     9
  107   110   113   116     9
  111   110   113   114     9
  111   110   113   115     9
  111   110   113   116     9
  112   110   113   114     9
  112   110   113   115     9
  112   110   113   116     9
   24   117   120   121     9
   24   117   120   122     9
   24   117   120   123     9
  118   117   120   121     9
  118   117   120   122     9
  118   117   120   123     9
  119   117   120   121     9
  119   117   120   122     9
  119   117   120   123     9
  117   120   123   124     9
  117   120   123   125     9
  117   120   123   126     9
  121   120   123   124     9
  121   120   123   125     9
  121   120   123   126     9
  122   120   123   124     9
  122   120   123   125     9
  122   120   123   126     9
  120   123   126   127     9
  120   123   126   128     9
  120   123   126   129     9
  124   123   126   127     9
  124   123   126   128     9
  124   123   126   129     9
  125   123   126   127     9
  125   123   126   128     9
  125   123   126   129     9
  123   126   129   130     9
  123   126   129   131     9
  123   126   129   132     9
  127   126   129   130     9
  127   126   129   131     9
  127   126   129   132     9
  128   126   129   130     9
  128   126   129   131     9
  128   126   129   132     9
  126   129   132   133     9
  126   129   132   134     9
  126   129   132   135     9
  130   129   132   133     9
  130   129   132   134     9
  130   129   132   135     9
  131   129   132   133     9
  131   129   132   134     9
  131   129   132   135     9
  129   132   135   136     9
  129   132   135   137     9
  129   132   135   138     9
  133   132   135   136     9
  133   132   135   137     9
  133   132   135   138     9
  134   132   135   136     9
  134   132   135   137     9
  134   132   135   138     9
  132   135   138   139     9
  132   135   138   140     9
  132   135   138   141     9
  136   135   138   139     9
  136   135   138   140     9
  136   135   138   141     9
  137   135   138   139     9
  137   135   138   140     9
  137   135   138   141     9
  135   138   141   142     9
  135   138   141   143     9
  139   138   141   142     9
  139   138   141   143     9
  140   138   141   142     9
  140   138   141   143     9
  138   141   143   144     9
  138   141   143   145     9
  142   141   143   144     9
  142   141   143   145     9
  141   143   145   146     9
  141   143   145   147     9
  141   143   145   148     9
  144   143   145   146     9
  144   143   145   147     9
  144   143   145   148     9
  143   145   148   149     9
  143   145   148   150     9
  143   145   148   151     9
  146   145   148   149     9
  146   145   148   150     9
  146   145   148   151     9
  147   145   148   149     9
  147   145   148   150     9
  147   145   148   151     9
  145   148   151   152     9
  145   148   151   153     9
  145   148   151   154     9
  149   148   151   152     9
  149   148   151   153     9
  149   148   151   154     9
  150   148   151   152     9
  150   148   151   153     9
  150   148   151   154     9
  148   151   154   155     9
  148   151   154   156     9
  148   151   154   157     9
  152   151   154   155     9
  152   151   154   156     9
  152   151   154   157     9
  153   151   154   155     9
  153   151   154   156     9
  153   151   154   157     9
  151   154   157   158     9
  151   154   157   159     9
  151   154   157   160     9
  155   154   157   158     9
  155   154   157   159     9
  155   154   157   160     9
  156   154   157   158     9
  156   154   157   159     9
  156   154   157   160     9
  154   157   160   161     9
  154   157   160   162     9
  154   157   160   163     9
  158   157   160   161     9
  158   157   160   162     9
  158   157   160   163     9
  159   157   160   161     9
  159   157   160   162     9
  159   157   160   163     9
  157   160   163   164     9
  157   160   163   165     9
  157   160   163   166     9
  161   160   163   164     9
  161   160   163   165     9
  161   160   163   166     9
  162   160   163   164     9
  162   160   163   165     9
  162   160   163   166     9
  160   163   166   167     9
  160   163   166   168     9
  160   163   166   169     9
  164   163   166   167     9
  164   163   166   168     9
  164   163   166   169     9
  165   163   166   167     9
  165   163   166   168     9
  165   163   166   169     9

[ dihedrals ]
; ai	aj	ak	al	funct	q0	cq
    6     4     7     5     2
   13    12    15    14     2
   22    21    24    23     2

#ifdef POSRES
[ position_restraints ]
   10     1     0.0             0.0            POSRES_FC_LIPID
#endif

#ifdef DIHRES
[ dihedral_restraints ]
    1    18    10    12     1   -120.0      2.5       DIHRES_FC
   42    45    47    49     1      0.0      0.0       DIHRES_FC
   49    52    54    56     1      0.0      0.0       DIHRES_FC
   87    90    92    94     1      0.0      0.0       DIHRES_FC
   94    97    99   101     1      0.0      0.0       DIHRES_FC
  138   141   143   145     1      0.0      0.0       DIHRES_FC
#endif
