;;
;; Generated by CHARMM-GUI FF-Converter
;;
;; Correspondance:
;; jul316@lehigh.edu or wonpil@lehigh.edu
;;
;; GROMACS topology file for MAIPG
;;


[ moleculetype ]
; name	nrexcl
MAIPG	     3

[ atoms ]
; nr	type	resnr	residu	atom	cgnr	charge	mass
     1       CTL2    105    MAIPG    C13      1     0.050000    12.0110   ; qtot  0.050
     2       HAL2    105    MAIPG   H13A      2     0.090000     1.0080   ; qtot  0.140
     3       HAL2    105    MAIPG   H13B      3     0.090000     1.0080   ; qtot  0.230
     4        OHL    105    MAIPG    OC3      4    -0.650000    15.9994   ; qtot -0.420
     5        HOL    105    MAIPG    HO3      5     0.420000     1.0080   ; qtot -0.000
     6       CTL1    105    MAIPG    C12      6     0.140000    12.0110   ; qtot  0.140
     7       HAL1    105    MAIPG   H12A      7     0.090000     1.0080   ; qtot  0.230
     8        OHL    105    MAIPG    OC2      8    -0.650000    15.9994   ; qtot -0.420
     9        HOL    105    MAIPG    HO2      9     0.420000     1.0080   ; qtot -0.000
    10       CTL2    105    MAIPG    C11     10    -0.080000    12.0110   ; qtot -0.080
    11       HAL2    105    MAIPG   H11A     11     0.090000     1.0080   ; qtot  0.010
    12       HAL2    105    MAIPG   H11B     12     0.090000     1.0080   ; qtot  0.100
    13         PL    105    MAIPG      P     13     1.500000    30.9740   ; qtot  1.600
    14        O2L    105    MAIPG    O13     14    -0.780000    15.9994   ; qtot  0.820
    15        O2L    105    MAIPG    O14     15    -0.780000    15.9994   ; qtot  0.040
    16       OSLP    105    MAIPG    O12     16    -0.570000    15.9994   ; qtot -0.530
    17       OSLP    105    MAIPG    O11     17    -0.570000    15.9994   ; qtot -1.100
    18       CTL2    105    MAIPG     C1     18    -0.080000    12.0110   ; qtot -1.180
    19       HAL2    105    MAIPG     HA     19     0.090000     1.0080   ; qtot -1.090
    20       HAL2    105    MAIPG     HB     20     0.090000     1.0080   ; qtot -1.000
    21       CTL1    105    MAIPG     C2     21     0.170000    12.0110   ; qtot -0.830
    22       HAL1    105    MAIPG     HS     22     0.090000     1.0080   ; qtot -0.740
    23        OSL    105    MAIPG    O21     23    -0.490000    15.9994   ; qtot -1.230
    24         CL    105    MAIPG    C21     24     0.900000    12.0110   ; qtot -0.330
    25        OBL    105    MAIPG    O22     25    -0.630000    15.9994   ; qtot -0.960
    26       CTL2    105    MAIPG    C22     26    -0.220000    12.0110   ; qtot -1.180
    27       HAL2    105    MAIPG    H2R     27     0.090000     1.0080   ; qtot -1.090
    28       HAL2    105    MAIPG    H2S     28     0.090000     1.0080   ; qtot -1.000
    29       CTL2    105    MAIPG     C3     29     0.080000    12.0110   ; qtot -0.920
    30       HAL2    105    MAIPG     HX     30     0.090000     1.0080   ; qtot -0.830
    31       HAL2    105    MAIPG     HY     31     0.090000     1.0080   ; qtot -0.740
    32        OSL    105    MAIPG    O31     32    -0.490000    15.9994   ; qtot -1.230
    33         CL    105    MAIPG    C31     33     0.900000    12.0110   ; qtot -0.330
    34        OBL    105    MAIPG    O32     34    -0.630000    15.9994   ; qtot -0.960
    35       CTL2    105    MAIPG    C32     35    -0.220000    12.0110   ; qtot -1.180
    36       HAL2    105    MAIPG    H2X     36     0.090000     1.0080   ; qtot -1.090
    37       HAL2    105    MAIPG    H2Y     37     0.090000     1.0080   ; qtot -1.000
    38       CTL2    105    MAIPG    C23     38    -0.180000    12.0110   ; qtot -1.180
    39       HAL2    105    MAIPG    H3R     39     0.090000     1.0080   ; qtot -1.090
    40       HAL2    105    MAIPG    H3S     40     0.090000     1.0080   ; qtot -1.000
    41       CTL2    105    MAIPG    C24     41    -0.180000    12.0110   ; qtot -1.180
    42       HAL2    105    MAIPG    H4R     42     0.090000     1.0080   ; qtot -1.090
    43       HAL2    105    MAIPG    H4S     43     0.090000     1.0080   ; qtot -1.000
    44       CTL2    105    MAIPG    C25     44    -0.180000    12.0110   ; qtot -1.180
    45       HAL2    105    MAIPG    H5R     45     0.090000     1.0080   ; qtot -1.090
    46       HAL2    105    MAIPG    H5S     46     0.090000     1.0080   ; qtot -1.000
    47       CTL2    105    MAIPG    C26     47    -0.180000    12.0110   ; qtot -1.180
    48       HAL2    105    MAIPG    H6R     48     0.090000     1.0080   ; qtot -1.090
    49       HAL2    105    MAIPG    H6S     49     0.090000     1.0080   ; qtot -1.000
    50       CTL2    105    MAIPG    C27     50    -0.180000    12.0110   ; qtot -1.180
    51       HAL2    105    MAIPG    H7R     51     0.090000     1.0080   ; qtot -1.090
    52       HAL2    105    MAIPG    H7S     52     0.090000     1.0080   ; qtot -1.000
    53       CTL2    105    MAIPG    C28     53    -0.180000    12.0110   ; qtot -1.180
    54       HAL2    105    MAIPG    H8R     54     0.090000     1.0080   ; qtot -1.090
    55       HAL2    105    MAIPG    H8S     55     0.090000     1.0080   ; qtot -1.000
    56       CTL2    105    MAIPG    C29     56    -0.180000    12.0110   ; qtot -1.180
    57       HAL2    105    MAIPG    H9R     57     0.090000     1.0080   ; qtot -1.090
    58       HAL2    105    MAIPG    H9S     58     0.090000     1.0080   ; qtot -1.000
    59       CTL2    105    MAIPG   C210     59    -0.180000    12.0110   ; qtot -1.180
    60       HAL2    105    MAIPG   H10R     60     0.090000     1.0080   ; qtot -1.090
    61       HAL2    105    MAIPG   H10S     61     0.090000     1.0080   ; qtot -1.000
    62       CTL2    105    MAIPG   C211     62    -0.180000    12.0110   ; qtot -1.180
    63       HAL2    105    MAIPG   H11R     63     0.090000     1.0080   ; qtot -1.090
    64       HAL2    105    MAIPG   H11S     64     0.090000     1.0080   ; qtot -1.000
    65       CTL1    105    MAIPG   C212     65    -0.090000    12.0110   ; qtot -1.090
    66       HAL1    105    MAIPG   H12R     66     0.090000     1.0080   ; qtot -1.000
    67       CTL3    105    MAIPG   C215     67    -0.270000    12.0110   ; qtot -1.270
    68       HAL3    105    MAIPG   H15R     68     0.090000     1.0080   ; qtot -1.180
    69       HAL3    105    MAIPG   H15S     69     0.090000     1.0080   ; qtot -1.090
    70       HAL3    105    MAIPG   H15T     70     0.090000     1.0080   ; qtot -1.000
    71       CTL2    105    MAIPG   C213     71    -0.180000    12.0110   ; qtot -1.180
    72       HAL2    105    MAIPG   H13R     72     0.090000     1.0080   ; qtot -1.090
    73       HAL2    105    MAIPG   H13S     73     0.090000     1.0080   ; qtot -1.000
    74       CTL3    105    MAIPG   C214     74    -0.270000    12.0110   ; qtot -1.270
    75       HAL3    105    MAIPG   H14R     75     0.090000     1.0080   ; qtot -1.180
    76       HAL3    105    MAIPG   H14S     76     0.090000     1.0080   ; qtot -1.090
    77       HAL3    105    MAIPG   H14T     77     0.090000     1.0080   ; qtot -1.000
    78       CTL2    105    MAIPG    C33     78    -0.180000    12.0110   ; qtot -1.180
    79       HAL2    105    MAIPG    H3X     79     0.090000     1.0080   ; qtot -1.090
    80       HAL2    105    MAIPG    H3Y     80     0.090000     1.0080   ; qtot -1.000
    81       CTL2    105    MAIPG    C34     81    -0.180000    12.0110   ; qtot -1.180
    82       HAL2    105    MAIPG    H4X     82     0.090000     1.0080   ; qtot -1.090
    83       HAL2    105    MAIPG    H4Y     83     0.090000     1.0080   ; qtot -1.000
    84       CTL2    105    MAIPG    C35     84    -0.180000    12.0110   ; qtot -1.180
    85       HAL2    105    MAIPG    H5X     85     0.090000     1.0080   ; qtot -1.090
    86       HAL2    105    MAIPG    H5Y     86     0.090000     1.0080   ; qtot -1.000
    87       CTL2    105    MAIPG    C36     87    -0.180000    12.0110   ; qtot -1.180
    88       HAL2    105    MAIPG    H6X     88     0.090000     1.0080   ; qtot -1.090
    89       HAL2    105    MAIPG    H6Y     89     0.090000     1.0080   ; qtot -1.000
    90       CTL2    105    MAIPG    C37     90    -0.180000    12.0110   ; qtot -1.180
    91       HAL2    105    MAIPG    H7X     91     0.090000     1.0080   ; qtot -1.090
    92       HAL2    105    MAIPG    H7Y     92     0.090000     1.0080   ; qtot -1.000
    93       CTL2    105    MAIPG    C38     93    -0.180000    12.0110   ; qtot -1.180
    94       HAL2    105    MAIPG    H8X     94     0.090000     1.0080   ; qtot -1.090
    95       HAL2    105    MAIPG    H8Y     95     0.090000     1.0080   ; qtot -1.000
    96       CTL2    105    MAIPG    C39     96    -0.180000    12.0110   ; qtot -1.180
    97       HAL2    105    MAIPG    H9X     97     0.090000     1.0080   ; qtot -1.090
    98       HAL2    105    MAIPG    H9Y     98     0.090000     1.0080   ; qtot -1.000
    99       CTL2    105    MAIPG   C310     99    -0.180000    12.0110   ; qtot -1.180
   100       HAL2    105    MAIPG   H10X    100     0.090000     1.0080   ; qtot -1.090
   101       HAL2    105    MAIPG   H10Y    101     0.090000     1.0080   ; qtot -1.000
   102       CTL2    105    MAIPG   C311    102    -0.180000    12.0110   ; qtot -1.180
   103       HAL2    105    MAIPG   H11X    103     0.090000     1.0080   ; qtot -1.090
   104       HAL2    105    MAIPG   H11Y    104     0.090000     1.0080   ; qtot -1.000
   105       CTL2    105    MAIPG   C312    105    -0.180000    12.0110   ; qtot -1.180
   106       HAL2    105    MAIPG   H12X    106     0.090000     1.0080   ; qtot -1.090
   107       HAL2    105    MAIPG   H12Y    107     0.090000     1.0080   ; qtot -1.000
   108       CTL2    105    MAIPG   C313    108    -0.180000    12.0110   ; qtot -1.180
   109       HAL2    105    MAIPG   H13X    109     0.090000     1.0080   ; qtot -1.090
   110       HAL2    105    MAIPG   H13Y    110     0.090000     1.0080   ; qtot -1.000
   111       CTL3    105    MAIPG   C314    111    -0.270000    12.0110   ; qtot -1.270
   112       HAL3    105    MAIPG   H14X    112     0.090000     1.0080   ; qtot -1.180
   113       HAL3    105    MAIPG   H14Y    113     0.090000     1.0080   ; qtot -1.090
   114       HAL3    105    MAIPG   H14Z    114     0.090000     1.0080   ; qtot -1.000

[ bonds ]
; ai	aj	funct	b0	Kb
    1     2     1
    1     3     1
    4     1     1
    1     6     1
    5     4     1
    6     7     1
    8     6     1
    6    10     1
    9     8     1
   10    11     1
   10    12     1
   10    16     1
   13    14     1
   13    15     1
   16    13     1
   13    17     1
   17    18     1
   18    19     1
   18    20     1
   18    21     1
   21    22     1
   21    23     1
   21    29     1
   23    24     1
   24    25     1
   24    26     1
   26    27     1
   26    28     1
   26    38     1
   29    30     1
   29    31     1
   29    32     1
   32    33     1
   33    34     1
   33    35     1
   35    36     1
   35    37     1
   35    78     1
   38    39     1
   38    40     1
   38    41     1
   41    42     1
   41    43     1
   41    44     1
   44    45     1
   44    46     1
   44    47     1
   47    48     1
   47    49     1
   47    50     1
   50    51     1
   50    52     1
   50    53     1
   53    54     1
   53    55     1
   53    56     1
   56    57     1
   56    58     1
   56    59     1
   59    60     1
   59    61     1
   59    62     1
   62    63     1
   62    64     1
   62    65     1
   65    66     1
   65    67     1
   65    71     1
   67    68     1
   67    69     1
   67    70     1
   71    72     1
   71    73     1
   71    74     1
   74    75     1
   74    76     1
   74    77     1
   78    79     1
   78    80     1
   78    81     1
   81    82     1
   81    83     1
   81    84     1
   84    85     1
   84    86     1
   84    87     1
   87    88     1
   87    89     1
   87    90     1
   90    91     1
   90    92     1
   90    93     1
   93    94     1
   93    95     1
   93    96     1
   96    97     1
   96    98     1
   96    99     1
   99   100     1
   99   101     1
   99   102     1
  102   103     1
  102   104     1
  102   105     1
  105   106     1
  105   107     1
  105   108     1
  108   109     1
  108   110     1
  108   111     1
  111   112     1
  111   113     1
  111   114     1

[ pairs ]
; ai	aj	funct	c6	c12 or
; ai	aj	funct	fudgeQQ	q1	q2	c6	c12
    1     9     1
    1    11     1
    1    12     1
    1    16     1
    2     5     1
    2     7     1
    2     8     1
    2    10     1
    3     5     1
    3     7     1
    3     8     1
    3    10     1
    4     7     1
    4     8     1
    4    10     1
    5     6     1
    6    13     1
    7     9     1
    7    11     1
    7    12     1
    7    16     1
    8    11     1
    8    12     1
    8    16     1
    9    10     1
   10    14     1
   10    15     1
   10    17     1
   11    13     1
   12    13     1
   13    19     1
   13    20     1
   13    21     1
   14    18     1
   15    18     1
   16    18     1
   17    22     1
   17    23     1
   17    29     1
   18    24     1
   18    30     1
   18    31     1
   18    32     1
   19    22     1
   19    23     1
   19    29     1
   20    22     1
   20    23     1
   20    29     1
   21    25     1
   21    26     1
   21    33     1
   22    24     1
   22    30     1
   22    31     1
   22    32     1
   23    27     1
   23    28     1
   23    30     1
   23    31     1
   23    32     1
   23    38     1
   24    29     1
   24    39     1
   24    40     1
   24    41     1
   25    27     1
   25    28     1
   25    38     1
   26    42     1
   26    43     1
   26    44     1
   27    39     1
   27    40     1
   27    41     1
   28    39     1
   28    40     1
   28    41     1
   29    34     1
   29    35     1
   30    33     1
   31    33     1
   32    36     1
   32    37     1
   32    78     1
   33    79     1
   33    80     1
   33    81     1
   34    36     1
   34    37     1
   34    78     1
   35    82     1
   35    83     1
   35    84     1
   36    79     1
   36    80     1
   36    81     1
   37    79     1
   37    80     1
   37    81     1
   38    45     1
   38    46     1
   38    47     1
   39    42     1
   39    43     1
   39    44     1
   40    42     1
   40    43     1
   40    44     1
   41    48     1
   41    49     1
   41    50     1
   42    45     1
   42    46     1
   42    47     1
   43    45     1
   43    46     1
   43    47     1
   44    51     1
   44    52     1
   44    53     1
   45    48     1
   45    49     1
   45    50     1
   46    48     1
   46    49     1
   46    50     1
   47    54     1
   47    55     1
   47    56     1
   48    51     1
   48    52     1
   48    53     1
   49    51     1
   49    52     1
   49    53     1
   50    57     1
   50    58     1
   50    59     1
   51    54     1
   51    55     1
   51    56     1
   52    54     1
   52    55     1
   52    56     1
   53    60     1
   53    61     1
   53    62     1
   54    57     1
   54    58     1
   54    59     1
   55    57     1
   55    58     1
   55    59     1
   56    63     1
   56    64     1
   56    65     1
   57    60     1
   57    61     1
   57    62     1
   58    60     1
   58    61     1
   58    62     1
   59    66     1
   59    67     1
   59    71     1
   60    63     1
   60    64     1
   60    65     1
   61    63     1
   61    64     1
   61    65     1
   62    68     1
   62    69     1
   62    70     1
   62    72     1
   62    73     1
   62    74     1
   63    66     1
   63    67     1
   63    71     1
   64    66     1
   64    67     1
   64    71     1
   65    75     1
   65    76     1
   65    77     1
   66    68     1
   66    69     1
   66    70     1
   66    72     1
   66    73     1
   66    74     1
   67    72     1
   67    73     1
   67    74     1
   68    71     1
   69    71     1
   70    71     1
   72    75     1
   72    76     1
   72    77     1
   73    75     1
   73    76     1
   73    77     1
   78    85     1
   78    86     1
   78    87     1
   79    82     1
   79    83     1
   79    84     1
   80    82     1
   80    83     1
   80    84     1
   81    88     1
   81    89     1
   81    90     1
   82    85     1
   82    86     1
   82    87     1
   83    85     1
   83    86     1
   83    87     1
   84    91     1
   84    92     1
   84    93     1
   85    88     1
   85    89     1
   85    90     1
   86    88     1
   86    89     1
   86    90     1
   87    94     1
   87    95     1
   87    96     1
   88    91     1
   88    92     1
   88    93     1
   89    91     1
   89    92     1
   89    93     1
   90    97     1
   90    98     1
   90    99     1
   91    94     1
   91    95     1
   91    96     1
   92    94     1
   92    95     1
   92    96     1
   93   100     1
   93   101     1
   93   102     1
   94    97     1
   94    98     1
   94    99     1
   95    97     1
   95    98     1
   95    99     1
   96   103     1
   96   104     1
   96   105     1
   97   100     1
   97   101     1
   97   102     1
   98   100     1
   98   101     1
   98   102     1
   99   106     1
   99   107     1
   99   108     1
  100   103     1
  100   104     1
  100   105     1
  101   103     1
  101   104     1
  101   105     1
  102   109     1
  102   110     1
  102   111     1
  103   106     1
  103   107     1
  103   108     1
  104   106     1
  104   107     1
  104   108     1
  105   112     1
  105   113     1
  105   114     1
  106   109     1
  106   110     1
  106   111     1
  107   109     1
  107   110     1
  107   111     1
  109   112     1
  109   113     1
  109   114     1
  110   112     1
  110   113     1
  110   114     1

[ angles ] 
; ai	aj	ak	funct	th0	cth	S0	Kub
    2     1     3     5
    2     1     4     5
    2     1     6     5
    3     1     4     5
    3     1     6     5
    4     1     6     5
    1     4     5     5
    1     6     7     5
    1     6     8     5
    1     6    10     5
    7     6     8     5
    7     6    10     5
    8     6    10     5
    6     8     9     5
    6    10    11     5
    6    10    12     5
    6    10    16     5
   11    10    12     5
   11    10    16     5
   12    10    16     5
   14    13    15     5
   14    13    16     5
   14    13    17     5
   15    13    16     5
   15    13    17     5
   16    13    17     5
   10    16    13     5
   13    17    18     5
   17    18    19     5
   17    18    20     5
   17    18    21     5
   19    18    20     5
   19    18    21     5
   20    18    21     5
   18    21    22     5
   18    21    23     5
   18    21    29     5
   22    21    23     5
   22    21    29     5
   23    21    29     5
   21    23    24     5
   23    24    25     5
   23    24    26     5
   25    24    26     5
   24    26    27     5
   24    26    28     5
   24    26    38     5
   27    26    28     5
   27    26    38     5
   28    26    38     5
   21    29    30     5
   21    29    31     5
   21    29    32     5
   30    29    31     5
   30    29    32     5
   31    29    32     5
   29    32    33     5
   32    33    34     5
   32    33    35     5
   34    33    35     5
   33    35    36     5
   33    35    37     5
   33    35    78     5
   36    35    37     5
   36    35    78     5
   37    35    78     5
   26    38    39     5
   26    38    40     5
   26    38    41     5
   39    38    40     5
   39    38    41     5
   40    38    41     5
   38    41    42     5
   38    41    43     5
   38    41    44     5
   42    41    43     5
   42    41    44     5
   43    41    44     5
   41    44    45     5
   41    44    46     5
   41    44    47     5
   45    44    46     5
   45    44    47     5
   46    44    47     5
   44    47    48     5
   44    47    49     5
   44    47    50     5
   48    47    49     5
   48    47    50     5
   49    47    50     5
   47    50    51     5
   47    50    52     5
   47    50    53     5
   51    50    52     5
   51    50    53     5
   52    50    53     5
   50    53    54     5
   50    53    55     5
   50    53    56     5
   54    53    55     5
   54    53    56     5
   55    53    56     5
   53    56    57     5
   53    56    58     5
   53    56    59     5
   57    56    58     5
   57    56    59     5
   58    56    59     5
   56    59    60     5
   56    59    61     5
   56    59    62     5
   60    59    61     5
   60    59    62     5
   61    59    62     5
   59    62    63     5
   59    62    64     5
   59    62    65     5
   63    62    64     5
   63    62    65     5
   64    62    65     5
   62    65    66     5
   62    65    67     5
   62    65    71     5
   66    65    67     5
   66    65    71     5
   67    65    71     5
   65    67    68     5
   65    67    69     5
   65    67    70     5
   68    67    69     5
   68    67    70     5
   69    67    70     5
   65    71    72     5
   65    71    73     5
   65    71    74     5
   72    71    73     5
   72    71    74     5
   73    71    74     5
   71    74    75     5
   71    74    76     5
   71    74    77     5
   75    74    76     5
   75    74    77     5
   76    74    77     5
   35    78    79     5
   35    78    80     5
   35    78    81     5
   79    78    80     5
   79    78    81     5
   80    78    81     5
   78    81    82     5
   78    81    83     5
   78    81    84     5
   82    81    83     5
   82    81    84     5
   83    81    84     5
   81    84    85     5
   81    84    86     5
   81    84    87     5
   85    84    86     5
   85    84    87     5
   86    84    87     5
   84    87    88     5
   84    87    89     5
   84    87    90     5
   88    87    89     5
   88    87    90     5
   89    87    90     5
   87    90    91     5
   87    90    92     5
   87    90    93     5
   91    90    92     5
   91    90    93     5
   92    90    93     5
   90    93    94     5
   90    93    95     5
   90    93    96     5
   94    93    95     5
   94    93    96     5
   95    93    96     5
   93    96    97     5
   93    96    98     5
   93    96    99     5
   97    96    98     5
   97    96    99     5
   98    96    99     5
   96    99   100     5
   96    99   101     5
   96    99   102     5
  100    99   101     5
  100    99   102     5
  101    99   102     5
   99   102   103     5
   99   102   104     5
   99   102   105     5
  103   102   104     5
  103   102   105     5
  104   102   105     5
  102   105   106     5
  102   105   107     5
  102   105   108     5
  106   105   107     5
  106   105   108     5
  107   105   108     5
  105   108   109     5
  105   108   110     5
  105   108   111     5
  109   108   110     5
  109   108   111     5
  110   108   111     5
  108   111   112     5
  108   111   113     5
  108   111   114     5
  112   111   113     5
  112   111   114     5
  113   111   114     5

[ dihedrals ]
; ai	aj	ak	al	funct	phi0	cp	mult
    2     1     4     5     9
    3     1     4     5     9
    2     1     6     7     9
    2     1     6     8     9
    2     1     6    10     9
    3     1     6     7     9
    3     1     6     8     9
    3     1     6    10     9
    4     1     6     7     9
    4     1     6     8     9
    4     1     6    10     9
    5     4     1     6     9
    1     6     8     9     9
    7     6     8     9     9
    1     6    10    11     9
    1     6    10    12     9
    1     6    10    16     9
    7     6    10    11     9
    7     6    10    12     9
    7     6    10    16     9
    8     6    10    11     9
    8     6    10    12     9
    8     6    10    16     9
    9     8     6    10     9
    6    10    16    13     9
   11    10    16    13     9
   12    10    16    13     9
   14    13    17    18     9
   15    13    17    18     9
   16    13    17    18     9
   10    16    13    14     9
   10    16    13    15     9
   10    16    13    17     9
   13    17    18    19     9
   13    17    18    20     9
   13    17    18    21     9
   17    18    21    22     9
   17    18    21    23     9
   17    18    21    29     9
   19    18    21    22     9
   19    18    21    23     9
   19    18    21    29     9
   20    18    21    22     9
   20    18    21    23     9
   20    18    21    29     9
   18    21    23    24     9
   22    21    23    24     9
   18    21    29    30     9
   18    21    29    31     9
   18    21    29    32     9
   22    21    29    30     9
   22    21    29    31     9
   22    21    29    32     9
   23    21    29    30     9
   23    21    29    31     9
   23    21    29    32     9
   24    23    21    29     9
   21    23    24    25     9
   21    23    24    26     9
   23    24    26    27     9
   23    24    26    28     9
   23    24    26    38     9
   25    24    26    27     9
   25    24    26    28     9
   25    24    26    38     9
   24    26    38    39     9
   24    26    38    40     9
   24    26    38    41     9
   27    26    38    39     9
   27    26    38    40     9
   27    26    38    41     9
   28    26    38    39     9
   28    26    38    40     9
   28    26    38    41     9
   21    29    32    33     9
   30    29    32    33     9
   31    29    32    33     9
   29    32    33    34     9
   29    32    33    35     9
   32    33    35    36     9
   32    33    35    37     9
   32    33    35    78     9
   34    33    35    36     9
   34    33    35    37     9
   34    33    35    78     9
   33    35    78    79     9
   33    35    78    80     9
   33    35    78    81     9
   36    35    78    79     9
   36    35    78    80     9
   36    35    78    81     9
   37    35    78    79     9
   37    35    78    80     9
   37    35    78    81     9
   26    38    41    42     9
   26    38    41    43     9
   26    38    41    44     9
   39    38    41    42     9
   39    38    41    43     9
   39    38    41    44     9
   40    38    41    42     9
   40    38    41    43     9
   40    38    41    44     9
   38    41    44    45     9
   38    41    44    46     9
   38    41    44    47     9
   42    41    44    45     9
   42    41    44    46     9
   42    41    44    47     9
   43    41    44    45     9
   43    41    44    46     9
   43    41    44    47     9
   41    44    47    48     9
   41    44    47    49     9
   41    44    47    50     9
   45    44    47    48     9
   45    44    47    49     9
   45    44    47    50     9
   46    44    47    48     9
   46    44    47    49     9
   46    44    47    50     9
   44    47    50    51     9
   44    47    50    52     9
   44    47    50    53     9
   48    47    50    51     9
   48    47    50    52     9
   48    47    50    53     9
   49    47    50    51     9
   49    47    50    52     9
   49    47    50    53     9
   47    50    53    54     9
   47    50    53    55     9
   47    50    53    56     9
   51    50    53    54     9
   51    50    53    55     9
   51    50    53    56     9
   52    50    53    54     9
   52    50    53    55     9
   52    50    53    56     9
   50    53    56    57     9
   50    53    56    58     9
   50    53    56    59     9
   54    53    56    57     9
   54    53    56    58     9
   54    53    56    59     9
   55    53    56    57     9
   55    53    56    58     9
   55    53    56    59     9
   53    56    59    60     9
   53    56    59    61     9
   53    56    59    62     9
   57    56    59    60     9
   57    56    59    61     9
   57    56    59    62     9
   58    56    59    60     9
   58    56    59    61     9
   58    56    59    62     9
   56    59    62    63     9
   56    59    62    64     9
   56    59    62    65     9
   60    59    62    63     9
   60    59    62    64     9
   60    59    62    65     9
   61    59    62    63     9
   61    59    62    64     9
   61    59    62    65     9
   59    62    65    66     9
   59    62    65    67     9
   59    62    65    71     9
   63    62    65    66     9
   63    62    65    67     9
   63    62    65    71     9
   64    62    65    66     9
   64    62    65    67     9
   64    62    65    71     9
   62    65    67    68     9
   62    65    67    69     9
   62    65    67    70     9
   66    65    67    68     9
   66    65    67    69     9
   66    65    67    70     9
   62    65    71    72     9
   62    65    71    73     9
   62    65    71    74     9
   66    65    71    72     9
   66    65    71    73     9
   66    65    71    74     9
   67    65    71    72     9
   67    65    71    73     9
   67    65    71    74     9
   68    67    65    71     9
   69    67    65    71     9
   70    67    65    71     9
   65    71    74    75     9
   65    71    74    76     9
   65    71    74    77     9
   72    71    74    75     9
   72    71    74    76     9
   72    71    74    77     9
   73    71    74    75     9
   73    71    74    76     9
   73    71    74    77     9
   35    78    81    82     9
   35    78    81    83     9
   35    78    81    84     9
   79    78    81    82     9
   79    78    81    83     9
   79    78    81    84     9
   80    78    81    82     9
   80    78    81    83     9
   80    78    81    84     9
   78    81    84    85     9
   78    81    84    86     9
   78    81    84    87     9
   82    81    84    85     9
   82    81    84    86     9
   82    81    84    87     9
   83    81    84    85     9
   83    81    84    86     9
   83    81    84    87     9
   81    84    87    88     9
   81    84    87    89     9
   81    84    87    90     9
   85    84    87    88     9
   85    84    87    89     9
   85    84    87    90     9
   86    84    87    88     9
   86    84    87    89     9
   86    84    87    90     9
   84    87    90    91     9
   84    87    90    92     9
   84    87    90    93     9
   88    87    90    91     9
   88    87    90    92     9
   88    87    90    93     9
   89    87    90    91     9
   89    87    90    92     9
   89    87    90    93     9
   87    90    93    94     9
   87    90    93    95     9
   87    90    93    96     9
   91    90    93    94     9
   91    90    93    95     9
   91    90    93    96     9
   92    90    93    94     9
   92    90    93    95     9
   92    90    93    96     9
   90    93    96    97     9
   90    93    96    98     9
   90    93    96    99     9
   94    93    96    97     9
   94    93    96    98     9
   94    93    96    99     9
   95    93    96    97     9
   95    93    96    98     9
   95    93    96    99     9
   93    96    99   100     9
   93    96    99   101     9
   93    96    99   102     9
   97    96    99   100     9
   97    96    99   101     9
   97    96    99   102     9
   98    96    99   100     9
   98    96    99   101     9
   98    96    99   102     9
   96    99   102   103     9
   96    99   102   104     9
   96    99   102   105     9
  100    99   102   103     9
  100    99   102   104     9
  100    99   102   105     9
  101    99   102   103     9
  101    99   102   104     9
  101    99   102   105     9
   99   102   105   106     9
   99   102   105   107     9
   99   102   105   108     9
  103   102   105   106     9
  103   102   105   107     9
  103   102   105   108     9
  104   102   105   106     9
  104   102   105   107     9
  104   102   105   108     9
  102   105   108   109     9
  102   105   108   110     9
  102   105   108   111     9
  106   105   108   109     9
  106   105   108   110     9
  106   105   108   111     9
  107   105   108   109     9
  107   105   108   110     9
  107   105   108   111     9
  105   108   111   112     9
  105   108   111   113     9
  105   108   111   114     9
  109   108   111   112     9
  109   108   111   113     9
  109   108   111   114     9
  110   108   111   112     9
  110   108   111   113     9
  110   108   111   114     9

[ dihedrals ]
; ai	aj	ak	al	funct	q0	cq
   24    23    26    25     2
   33    32    35    34     2

#ifdef POSRES
[ position_restraints ]
   13     1     0.0             0.0            POSRES_FC_LIPID
#endif

#ifdef DIHRES
[ dihedral_restraints ]
    1     8     6    10     1    120.0      2.5       DIHRES_FC
   18    29    21    23     1   -120.0      2.5       DIHRES_FC
   62    71    65    67     1   -120.0      2.5       DIHRES_FC
#endif
