;;
;; Generated by CHARMM-GUI FF-Converter
;;
;; Correspondance:
;; jul316@lehigh.edu or wonpil@lehigh.edu
;;
;; GROMACS topology file for MPCL2
;;


[ moleculetype ]
; name	nrexcl
MPCL2	     3

[ atoms ]
; nr	type	resnr	residu	atom	cgnr	charge	mass
     1       CTL2    144    MPCL2     C3      1    -0.080000    12.0110   ; qtot -0.080
     2       HAL2    144    MPCL2   HG31      2     0.090000     1.0080   ; qtot  0.010
     3       HAL2    144    MPCL2   HG32      3     0.090000     1.0080   ; qtot  0.100
     4         PL    144    MPCL2     P3      4     1.500000    30.9740   ; qtot  1.600
     5        O2L    144    MPCL2   OP33      5    -0.780000    15.9994   ; qtot  0.820
     6        O2L    144    MPCL2   OP34      6    -0.780000    15.9994   ; qtot  0.040
     7       OSLP    144    MPCL2   OP31      7    -0.570000    15.9994   ; qtot -0.530
     8       OSLP    144    MPCL2   OP32      8    -0.570000    15.9994   ; qtot -1.100
     9       CTL2    144    MPCL2    C31      9    -0.080000    12.0110   ; qtot -1.180
    10       HAL2    144    MPCL2   H31J     10     0.090000     1.0080   ; qtot -1.090
    11       HAL2    144    MPCL2   H31K     11     0.090000     1.0080   ; qtot -1.000
    12       CTL1    144    MPCL2     C2     12     0.140000    12.0110   ; qtot -0.860
    13       HAL1    144    MPCL2   HG22     13     0.090000     1.0080   ; qtot -0.770
    14        OHL    144    MPCL2   OG12     14    -0.650000    15.9994   ; qtot -1.420
    15        HOL    144    MPCL2   HO12     15     0.420000     1.0080   ; qtot -1.000
    16       CTL2    144    MPCL2     C1     16    -0.080000    12.0110   ; qtot -1.080
    17       HAL2    144    MPCL2   HG11     17     0.090000     1.0080   ; qtot -0.990
    18       HAL2    144    MPCL2   HG12     18     0.090000     1.0080   ; qtot -0.900
    19         PL    144    MPCL2     P1     19     1.500000    30.9740   ; qtot  0.600
    20        O2L    144    MPCL2   OP13     20    -0.780000    15.9994   ; qtot -0.180
    21        O2L    144    MPCL2   OP14     21    -0.780000    15.9994   ; qtot -0.960
    22       OSLP    144    MPCL2   OP11     22    -0.570000    15.9994   ; qtot -1.530
    23       OSLP    144    MPCL2   OP12     23    -0.570000    15.9994   ; qtot -2.100
    24       CTL2    144    MPCL2    C11     24    -0.080000    12.0110   ; qtot -2.180
    25       HAL2    144    MPCL2   H11J     25     0.090000     1.0080   ; qtot -2.090
    26       HAL2    144    MPCL2   H11K     26     0.090000     1.0080   ; qtot -2.000
    27       CTL1    144    MPCL2    C12     27     0.170000    12.0110   ; qtot -1.830
    28       HAL1    144    MPCL2   H12J     28     0.090000     1.0080   ; qtot -1.740
    29        OSL    144    MPCL2    O12     29    -0.490000    15.9994   ; qtot -2.230
    30         CL    144    MPCL2    CA1     30     0.900000    12.0110   ; qtot -1.330
    31        OBL    144    MPCL2    OA1     31    -0.630000    15.9994   ; qtot -1.960
    32       CTL2    144    MPCL2    CA2     32    -0.220000    12.0110   ; qtot -2.180
    33       HAL2    144    MPCL2    H2A     33     0.090000     1.0080   ; qtot -2.090
    34       HAL2    144    MPCL2    H2B     34     0.090000     1.0080   ; qtot -2.000
    35       CTL2    144    MPCL2    C13     35     0.080000    12.0110   ; qtot -1.920
    36       HAL2    144    MPCL2   H13J     36     0.090000     1.0080   ; qtot -1.830
    37       HAL2    144    MPCL2   H13K     37     0.090000     1.0080   ; qtot -1.740
    38        OSL    144    MPCL2    O13     38    -0.490000    15.9994   ; qtot -2.230
    39         CL    144    MPCL2    CB1     39     0.900000    12.0110   ; qtot -1.330
    40        OBL    144    MPCL2    OB1     40    -0.630000    15.9994   ; qtot -1.960
    41       CTL2    144    MPCL2    CB2     41    -0.220000    12.0110   ; qtot -2.180
    42       HAL2    144    MPCL2    H2D     42     0.090000     1.0080   ; qtot -2.090
    43       HAL2    144    MPCL2    H2E     43     0.090000     1.0080   ; qtot -2.000
    44       CTL1    144    MPCL2    C32     44     0.170000    12.0110   ; qtot -1.830
    45       HAL1    144    MPCL2   H32J     45     0.090000     1.0080   ; qtot -1.740
    46        OSL    144    MPCL2    O32     46    -0.490000    15.9994   ; qtot -2.230
    47         CL    144    MPCL2    CC1     47     0.900000    12.0110   ; qtot -1.330
    48        OBL    144    MPCL2    OC1     48    -0.630000    15.9994   ; qtot -1.960
    49       CTL2    144    MPCL2    CC2     49    -0.220000    12.0110   ; qtot -2.180
    50       HAL2    144    MPCL2    H2R     50     0.090000     1.0080   ; qtot -2.090
    51       HAL2    144    MPCL2    H2S     51     0.090000     1.0080   ; qtot -2.000
    52       CTL2    144    MPCL2    C33     52     0.080000    12.0110   ; qtot -1.920
    53       HAL2    144    MPCL2   H33J     53     0.090000     1.0080   ; qtot -1.830
    54       HAL2    144    MPCL2   H33K     54     0.090000     1.0080   ; qtot -1.740
    55        OSL    144    MPCL2    O33     55    -0.490000    15.9994   ; qtot -2.230
    56         CL    144    MPCL2    CD1     56     0.900000    12.0110   ; qtot -1.330
    57        OBL    144    MPCL2    OD1     57    -0.630000    15.9994   ; qtot -1.960
    58       CTL2    144    MPCL2    CD2     58    -0.220000    12.0110   ; qtot -2.180
    59       HAL2    144    MPCL2    H2X     59     0.090000     1.0080   ; qtot -2.090
    60       HAL2    144    MPCL2    H2Y     60     0.090000     1.0080   ; qtot -2.000
    61       CTL2    144    MPCL2    CA3     61    -0.180000    12.0110   ; qtot -2.180
    62       HAL2    144    MPCL2    H3A     62     0.090000     1.0080   ; qtot -2.090
    63       HAL2    144    MPCL2    H3B     63     0.090000     1.0080   ; qtot -2.000
    64       CTL2    144    MPCL2    CA4     64    -0.180000    12.0110   ; qtot -2.180
    65       HAL2    144    MPCL2    H4A     65     0.090000     1.0080   ; qtot -2.090
    66       HAL2    144    MPCL2    H4B     66     0.090000     1.0080   ; qtot -2.000
    67       CTL2    144    MPCL2    CA5     67    -0.180000    12.0110   ; qtot -2.180
    68       HAL2    144    MPCL2    H5A     68     0.090000     1.0080   ; qtot -2.090
    69       HAL2    144    MPCL2    H5B     69     0.090000     1.0080   ; qtot -2.000
    70       CTL2    144    MPCL2    CA6     70    -0.180000    12.0110   ; qtot -2.180
    71       HAL2    144    MPCL2    H6A     71     0.090000     1.0080   ; qtot -2.090
    72       HAL2    144    MPCL2    H6B     72     0.090000     1.0080   ; qtot -2.000
    73       CTL2    144    MPCL2    CA7     73    -0.180000    12.0110   ; qtot -2.180
    74       HAL2    144    MPCL2    H7A     74     0.090000     1.0080   ; qtot -2.090
    75       HAL2    144    MPCL2    H7B     75     0.090000     1.0080   ; qtot -2.000
    76       CTL2    144    MPCL2    CA8     76    -0.180000    12.0110   ; qtot -2.180
    77       HAL2    144    MPCL2    H8A     77     0.090000     1.0080   ; qtot -2.090
    78       HAL2    144    MPCL2    H8B     78     0.090000     1.0080   ; qtot -2.000
    79       CTL2    144    MPCL2    CA9     79    -0.180000    12.0110   ; qtot -2.180
    80       HAL2    144    MPCL2    H9A     80     0.090000     1.0080   ; qtot -2.090
    81       HAL2    144    MPCL2    H9B     81     0.090000     1.0080   ; qtot -2.000
    82       CTL2    144    MPCL2   CA10     82    -0.180000    12.0110   ; qtot -2.180
    83       HAL2    144    MPCL2   H10A     83     0.090000     1.0080   ; qtot -2.090
    84       HAL2    144    MPCL2   H10B     84     0.090000     1.0080   ; qtot -2.000
    85       CTL2    144    MPCL2   CA11     85    -0.180000    12.0110   ; qtot -2.180
    86       HAL2    144    MPCL2   H11A     86     0.090000     1.0080   ; qtot -2.090
    87       HAL2    144    MPCL2   H11B     87     0.090000     1.0080   ; qtot -2.000
    88       CTL2    144    MPCL2   CA12     88    -0.180000    12.0110   ; qtot -2.180
    89       HAL2    144    MPCL2   H12A     89     0.090000     1.0080   ; qtot -2.090
    90       HAL2    144    MPCL2   H12B     90     0.090000     1.0080   ; qtot -2.000
    91       CTL2    144    MPCL2   CA13     91    -0.180000    12.0110   ; qtot -2.180
    92       HAL2    144    MPCL2   H13A     92     0.090000     1.0080   ; qtot -2.090
    93       HAL2    144    MPCL2   H13B     93     0.090000     1.0080   ; qtot -2.000
    94       CTL2    144    MPCL2   CA14     94    -0.180000    12.0110   ; qtot -2.180
    95       HAL2    144    MPCL2   H14A     95     0.090000     1.0080   ; qtot -2.090
    96       HAL2    144    MPCL2   H14B     96     0.090000     1.0080   ; qtot -2.000
    97       CTL2    144    MPCL2   CA15     97    -0.180000    12.0110   ; qtot -2.180
    98       HAL2    144    MPCL2   H15A     98     0.090000     1.0080   ; qtot -2.090
    99       HAL2    144    MPCL2   H15B     99     0.090000     1.0080   ; qtot -2.000
   100       CTL3    144    MPCL2   CA16    100    -0.270000    12.0110   ; qtot -2.270
   101       HAL3    144    MPCL2   H16A    101     0.090000     1.0080   ; qtot -2.180
   102       HAL3    144    MPCL2   H16B    102     0.090000     1.0080   ; qtot -2.090
   103       HAL3    144    MPCL2   H16C    103     0.090000     1.0080   ; qtot -2.000
   104       CTL2    144    MPCL2    CB3    104    -0.180000    12.0110   ; qtot -2.180
   105       HAL2    144    MPCL2    H3D    105     0.090000     1.0080   ; qtot -2.090
   106       HAL2    144    MPCL2    H3E    106     0.090000     1.0080   ; qtot -2.000
   107       CTL2    144    MPCL2    CB4    107    -0.180000    12.0110   ; qtot -2.180
   108       HAL2    144    MPCL2    H4D    108     0.090000     1.0080   ; qtot -2.090
   109       HAL2    144    MPCL2    H4E    109     0.090000     1.0080   ; qtot -2.000
   110       CTL2    144    MPCL2    CB5    110    -0.180000    12.0110   ; qtot -2.180
   111       HAL2    144    MPCL2    H5D    111     0.090000     1.0080   ; qtot -2.090
   112       HAL2    144    MPCL2    H5E    112     0.090000     1.0080   ; qtot -2.000
   113       CTL2    144    MPCL2    CB6    113    -0.180000    12.0110   ; qtot -2.180
   114       HAL2    144    MPCL2    H6D    114     0.090000     1.0080   ; qtot -2.090
   115       HAL2    144    MPCL2    H6E    115     0.090000     1.0080   ; qtot -2.000
   116       CTL2    144    MPCL2    CB7    116    -0.180000    12.0110   ; qtot -2.180
   117       HAL2    144    MPCL2    H7D    117     0.090000     1.0080   ; qtot -2.090
   118       HAL2    144    MPCL2    H7E    118     0.090000     1.0080   ; qtot -2.000
   119       CTL2    144    MPCL2    CB8    119    -0.180000    12.0110   ; qtot -2.180
   120       HAL2    144    MPCL2    H8D    120     0.090000     1.0080   ; qtot -2.090
   121       HAL2    144    MPCL2    H8E    121     0.090000     1.0080   ; qtot -2.000
   122       CTL2    144    MPCL2    CB9    122    -0.180000    12.0110   ; qtot -2.180
   123       HAL2    144    MPCL2    H9D    123     0.090000     1.0080   ; qtot -2.090
   124       HAL2    144    MPCL2    H9E    124     0.090000     1.0080   ; qtot -2.000
   125       CTL1    144    MPCL2   CB10    125    -0.090000    12.0110   ; qtot -2.090
   126       HAL1    144    MPCL2   H10D    126     0.090000     1.0080   ; qtot -2.000
   127       CTL3    144    MPCL2   CB19    127    -0.270000    12.0110   ; qtot -2.270
   128       HAL3    144    MPCL2   H19D    128     0.090000     1.0080   ; qtot -2.180
   129       HAL3    144    MPCL2   H19E    129     0.090000     1.0080   ; qtot -2.090
   130       HAL3    144    MPCL2   H19F    130     0.090000     1.0080   ; qtot -2.000
   131       CTL2    144    MPCL2   CB11    131    -0.180000    12.0110   ; qtot -2.180
   132       HAL2    144    MPCL2   H11D    132     0.090000     1.0080   ; qtot -2.090
   133       HAL2    144    MPCL2   H11E    133     0.090000     1.0080   ; qtot -2.000
   134       CTL2    144    MPCL2   CB12    134    -0.180000    12.0110   ; qtot -2.180
   135       HAL2    144    MPCL2   H12D    135     0.090000     1.0080   ; qtot -2.090
   136       HAL2    144    MPCL2   H12E    136     0.090000     1.0080   ; qtot -2.000
   137       CTL2    144    MPCL2   CB13    137    -0.180000    12.0110   ; qtot -2.180
   138       HAL2    144    MPCL2   H13D    138     0.090000     1.0080   ; qtot -2.090
   139       HAL2    144    MPCL2   H13E    139     0.090000     1.0080   ; qtot -2.000
   140       CTL2    144    MPCL2   CB14    140    -0.180000    12.0110   ; qtot -2.180
   141       HAL2    144    MPCL2   H14D    141     0.090000     1.0080   ; qtot -2.090
   142       HAL2    144    MPCL2   H14E    142     0.090000     1.0080   ; qtot -2.000
   143       CTL2    144    MPCL2   CB15    143    -0.180000    12.0110   ; qtot -2.180
   144       HAL2    144    MPCL2   H15D    144     0.090000     1.0080   ; qtot -2.090
   145       HAL2    144    MPCL2   H15E    145     0.090000     1.0080   ; qtot -2.000
   146       CTL2    144    MPCL2   CB16    146    -0.180000    12.0110   ; qtot -2.180
   147       HAL2    144    MPCL2   H16D    147     0.090000     1.0080   ; qtot -2.090
   148       HAL2    144    MPCL2   H16E    148     0.090000     1.0080   ; qtot -2.000
   149       CTL2    144    MPCL2   CB17    149    -0.180000    12.0110   ; qtot -2.180
   150       HAL2    144    MPCL2   H17D    150     0.090000     1.0080   ; qtot -2.090
   151       HAL2    144    MPCL2   H17E    151     0.090000     1.0080   ; qtot -2.000
   152       CTL3    144    MPCL2   CB18    152    -0.270000    12.0110   ; qtot -2.270
   153       HAL3    144    MPCL2   H18D    153     0.090000     1.0080   ; qtot -2.180
   154       HAL3    144    MPCL2   H18E    154     0.090000     1.0080   ; qtot -2.090
   155       HAL3    144    MPCL2   H18F    155     0.090000     1.0080   ; qtot -2.000
   156       CTL2    144    MPCL2    CC3    156    -0.180000    12.0110   ; qtot -2.180
   157       HAL2    144    MPCL2    H3R    157     0.090000     1.0080   ; qtot -2.090
   158       HAL2    144    MPCL2    H3S    158     0.090000     1.0080   ; qtot -2.000
   159       CTL2    144    MPCL2    CC4    159    -0.180000    12.0110   ; qtot -2.180
   160       HAL2    144    MPCL2    H4R    160     0.090000     1.0080   ; qtot -2.090
   161       HAL2    144    MPCL2    H4S    161     0.090000     1.0080   ; qtot -2.000
   162       CTL2    144    MPCL2    CC5    162    -0.180000    12.0110   ; qtot -2.180
   163       HAL2    144    MPCL2    H5R    163     0.090000     1.0080   ; qtot -2.090
   164       HAL2    144    MPCL2    H5S    164     0.090000     1.0080   ; qtot -2.000
   165       CTL2    144    MPCL2    CC6    165    -0.180000    12.0110   ; qtot -2.180
   166       HAL2    144    MPCL2    H6R    166     0.090000     1.0080   ; qtot -2.090
   167       HAL2    144    MPCL2    H6S    167     0.090000     1.0080   ; qtot -2.000
   168       CTL2    144    MPCL2    CC7    168    -0.180000    12.0110   ; qtot -2.180
   169       HAL2    144    MPCL2    H7R    169     0.090000     1.0080   ; qtot -2.090
   170       HAL2    144    MPCL2    H7S    170     0.090000     1.0080   ; qtot -2.000
   171       CTL2    144    MPCL2    CC8    171    -0.180000    12.0110   ; qtot -2.180
   172       HAL2    144    MPCL2    H8R    172     0.090000     1.0080   ; qtot -2.090
   173       HAL2    144    MPCL2    H8S    173     0.090000     1.0080   ; qtot -2.000
   174       CTL2    144    MPCL2    CC9    174    -0.180000    12.0110   ; qtot -2.180
   175       HAL2    144    MPCL2    H9R    175     0.090000     1.0080   ; qtot -2.090
   176       HAL2    144    MPCL2    H9S    176     0.090000     1.0080   ; qtot -2.000
   177       CTL2    144    MPCL2   CC10    177    -0.180000    12.0110   ; qtot -2.180
   178       HAL2    144    MPCL2   H10R    178     0.090000     1.0080   ; qtot -2.090
   179       HAL2    144    MPCL2   H10S    179     0.090000     1.0080   ; qtot -2.000
   180       CTL2    144    MPCL2   CC11    180    -0.180000    12.0110   ; qtot -2.180
   181       HAL2    144    MPCL2   H11R    181     0.090000     1.0080   ; qtot -2.090
   182       HAL2    144    MPCL2   H11S    182     0.090000     1.0080   ; qtot -2.000
   183       CTL2    144    MPCL2   CC12    183    -0.180000    12.0110   ; qtot -2.180
   184       HAL2    144    MPCL2   H12R    184     0.090000     1.0080   ; qtot -2.090
   185       HAL2    144    MPCL2   H12S    185     0.090000     1.0080   ; qtot -2.000
   186       CTL2    144    MPCL2   CC13    186    -0.180000    12.0110   ; qtot -2.180
   187       HAL2    144    MPCL2   H13R    187     0.090000     1.0080   ; qtot -2.090
   188       HAL2    144    MPCL2   H13S    188     0.090000     1.0080   ; qtot -2.000
   189       CTL2    144    MPCL2   CC14    189    -0.180000    12.0110   ; qtot -2.180
   190       HAL2    144    MPCL2   H14R    190     0.090000     1.0080   ; qtot -2.090
   191       HAL2    144    MPCL2   H14S    191     0.090000     1.0080   ; qtot -2.000
   192       CTL2    144    MPCL2   CC15    192    -0.180000    12.0110   ; qtot -2.180
   193       HAL2    144    MPCL2   H15R    193     0.090000     1.0080   ; qtot -2.090
   194       HAL2    144    MPCL2   H15S    194     0.090000     1.0080   ; qtot -2.000
   195       CTL3    144    MPCL2   CC16    195    -0.270000    12.0110   ; qtot -2.270
   196       HAL3    144    MPCL2   H16R    196     0.090000     1.0080   ; qtot -2.180
   197       HAL3    144    MPCL2   H16S    197     0.090000     1.0080   ; qtot -2.090
   198       HAL3    144    MPCL2   H16T    198     0.090000     1.0080   ; qtot -2.000
   199       CTL2    144    MPCL2    CD3    199    -0.180000    12.0110   ; qtot -2.180
   200       HAL2    144    MPCL2    H3X    200     0.090000     1.0080   ; qtot -2.090
   201       HAL2    144    MPCL2    H3Y    201     0.090000     1.0080   ; qtot -2.000
   202       CTL2    144    MPCL2    CD4    202    -0.180000    12.0110   ; qtot -2.180
   203       HAL2    144    MPCL2    H4X    203     0.090000     1.0080   ; qtot -2.090
   204       HAL2    144    MPCL2    H4Y    204     0.090000     1.0080   ; qtot -2.000
   205       CTL2    144    MPCL2    CD5    205    -0.180000    12.0110   ; qtot -2.180
   206       HAL2    144    MPCL2    H5X    206     0.090000     1.0080   ; qtot -2.090
   207       HAL2    144    MPCL2    H5Y    207     0.090000     1.0080   ; qtot -2.000
   208       CTL2    144    MPCL2    CD6    208    -0.180000    12.0110   ; qtot -2.180
   209       HAL2    144    MPCL2    H6X    209     0.090000     1.0080   ; qtot -2.090
   210       HAL2    144    MPCL2    H6Y    210     0.090000     1.0080   ; qtot -2.000
   211       CTL2    144    MPCL2    CD7    211    -0.180000    12.0110   ; qtot -2.180
   212       HAL2    144    MPCL2    H7X    212     0.090000     1.0080   ; qtot -2.090
   213       HAL2    144    MPCL2    H7Y    213     0.090000     1.0080   ; qtot -2.000
   214       CTL2    144    MPCL2    CD8    214    -0.180000    12.0110   ; qtot -2.180
   215       HAL2    144    MPCL2    H8X    215     0.090000     1.0080   ; qtot -2.090
   216       HAL2    144    MPCL2    H8Y    216     0.090000     1.0080   ; qtot -2.000
   217       CTL2    144    MPCL2    CD9    217    -0.180000    12.0110   ; qtot -2.180
   218       HAL2    144    MPCL2    H9X    218     0.090000     1.0080   ; qtot -2.090
   219       HAL2    144    MPCL2    H9Y    219     0.090000     1.0080   ; qtot -2.000
   220       CTL1    144    MPCL2   CD10    220    -0.090000    12.0110   ; qtot -2.090
   221       HAL1    144    MPCL2   H10X    221     0.090000     1.0080   ; qtot -2.000
   222       CTL3    144    MPCL2   CD19    222    -0.270000    12.0110   ; qtot -2.270
   223       HAL3    144    MPCL2   H19X    223     0.090000     1.0080   ; qtot -2.180
   224       HAL3    144    MPCL2   H19Y    224     0.090000     1.0080   ; qtot -2.090
   225       HAL3    144    MPCL2   H19Z    225     0.090000     1.0080   ; qtot -2.000
   226       CTL2    144    MPCL2   CD11    226    -0.180000    12.0110   ; qtot -2.180
   227       HAL2    144    MPCL2   H11X    227     0.090000     1.0080   ; qtot -2.090
   228       HAL2    144    MPCL2   H11Y    228     0.090000     1.0080   ; qtot -2.000
   229       CTL2    144    MPCL2   CD12    229    -0.180000    12.0110   ; qtot -2.180
   230       HAL2    144    MPCL2   H12X    230     0.090000     1.0080   ; qtot -2.090
   231       HAL2    144    MPCL2   H12Y    231     0.090000     1.0080   ; qtot -2.000
   232       CTL2    144    MPCL2   CD13    232    -0.180000    12.0110   ; qtot -2.180
   233       HAL2    144    MPCL2   H13X    233     0.090000     1.0080   ; qtot -2.090
   234       HAL2    144    MPCL2   H13Y    234     0.090000     1.0080   ; qtot -2.000
   235       CTL2    144    MPCL2   CD14    235    -0.180000    12.0110   ; qtot -2.180
   236       HAL2    144    MPCL2   H14X    236     0.090000     1.0080   ; qtot -2.090
   237       HAL2    144    MPCL2   H14Y    237     0.090000     1.0080   ; qtot -2.000
   238       CTL2    144    MPCL2   CD15    238    -0.180000    12.0110   ; qtot -2.180
   239       HAL2    144    MPCL2   H15X    239     0.090000     1.0080   ; qtot -2.090
   240       HAL2    144    MPCL2   H15Y    240     0.090000     1.0080   ; qtot -2.000
   241       CTL2    144    MPCL2   CD16    241    -0.180000    12.0110   ; qtot -2.180
   242       HAL2    144    MPCL2   H16X    242     0.090000     1.0080   ; qtot -2.090
   243       HAL2    144    MPCL2   H16Y    243     0.090000     1.0080   ; qtot -2.000
   244       CTL2    144    MPCL2   CD17    244    -0.180000    12.0110   ; qtot -2.180
   245       HAL2    144    MPCL2   H17X    245     0.090000     1.0080   ; qtot -2.090
   246       HAL2    144    MPCL2   H17Y    246     0.090000     1.0080   ; qtot -2.000
   247       CTL3    144    MPCL2   CD18    247    -0.270000    12.0110   ; qtot -2.270
   248       HAL3    144    MPCL2   H18X    248     0.090000     1.0080   ; qtot -2.180
   249       HAL3    144    MPCL2   H18Y    249     0.090000     1.0080   ; qtot -2.090
   250       HAL3    144    MPCL2   H18Z    250     0.090000     1.0080   ; qtot -2.000

[ bonds ]
; ai	aj	funct	b0	Kb
    1     2     1
    1     3     1
    1     7     1
   12     1     1
    4     5     1
    4     6     1
    4     7     1
    4     8     1
    8     9     1
    9    10     1
    9    11     1
    9    44     1
   12    13     1
   12    14     1
   16    12     1
   14    15     1
   16    17     1
   16    18     1
   16    22     1
   19    20     1
   19    21     1
   19    22     1
   19    23     1
   23    24     1
   24    25     1
   24    26     1
   24    27     1
   27    28     1
   27    29     1
   27    35     1
   29    30     1
   30    31     1
   30    32     1
   32    33     1
   32    34     1
   32    61     1
   35    36     1
   35    37     1
   35    38     1
   38    39     1
   39    40     1
   39    41     1
   41    42     1
   41    43     1
   41   104     1
   44    45     1
   44    46     1
   44    52     1
   46    47     1
   47    48     1
   47    49     1
   49    50     1
   49    51     1
   49   156     1
   52    53     1
   52    54     1
   52    55     1
   55    56     1
   56    57     1
   56    58     1
   58    59     1
   58    60     1
   58   199     1
   61    62     1
   61    63     1
   61    64     1
   64    65     1
   64    66     1
   64    67     1
   67    68     1
   67    69     1
   67    70     1
   70    71     1
   70    72     1
   70    73     1
   73    74     1
   73    75     1
   73    76     1
   76    77     1
   76    78     1
   76    79     1
   79    80     1
   79    81     1
   79    82     1
   82    83     1
   82    84     1
   82    85     1
   85    86     1
   85    87     1
   85    88     1
   88    89     1
   88    90     1
   88    91     1
   91    92     1
   91    93     1
   91    94     1
   94    95     1
   94    96     1
   94    97     1
   97    98     1
   97    99     1
   97   100     1
  100   101     1
  100   102     1
  100   103     1
  104   105     1
  104   106     1
  104   107     1
  107   108     1
  107   109     1
  107   110     1
  110   111     1
  110   112     1
  110   113     1
  113   114     1
  113   115     1
  113   116     1
  116   117     1
  116   118     1
  116   119     1
  119   120     1
  119   121     1
  119   122     1
  122   123     1
  122   124     1
  122   125     1
  125   126     1
  125   127     1
  125   131     1
  127   128     1
  127   129     1
  127   130     1
  131   132     1
  131   133     1
  131   134     1
  134   135     1
  134   136     1
  134   137     1
  137   138     1
  137   139     1
  137   140     1
  140   141     1
  140   142     1
  140   143     1
  143   144     1
  143   145     1
  143   146     1
  146   147     1
  146   148     1
  146   149     1
  149   150     1
  149   151     1
  149   152     1
  152   153     1
  152   154     1
  152   155     1
  156   157     1
  156   158     1
  156   159     1
  159   160     1
  159   161     1
  159   162     1
  162   163     1
  162   164     1
  162   165     1
  165   166     1
  165   167     1
  165   168     1
  168   169     1
  168   170     1
  168   171     1
  171   172     1
  171   173     1
  171   174     1
  174   175     1
  174   176     1
  174   177     1
  177   178     1
  177   179     1
  177   180     1
  180   181     1
  180   182     1
  180   183     1
  183   184     1
  183   185     1
  183   186     1
  186   187     1
  186   188     1
  186   189     1
  189   190     1
  189   191     1
  189   192     1
  192   193     1
  192   194     1
  192   195     1
  195   196     1
  195   197     1
  195   198     1
  199   200     1
  199   201     1
  199   202     1
  202   203     1
  202   204     1
  202   205     1
  205   206     1
  205   207     1
  205   208     1
  208   209     1
  208   210     1
  208   211     1
  211   212     1
  211   213     1
  211   214     1
  214   215     1
  214   216     1
  214   217     1
  217   218     1
  217   219     1
  217   220     1
  220   221     1
  220   222     1
  220   226     1
  222   223     1
  222   224     1
  222   225     1
  226   227     1
  226   228     1
  226   229     1
  229   230     1
  229   231     1
  229   232     1
  232   233     1
  232   234     1
  232   235     1
  235   236     1
  235   237     1
  235   238     1
  238   239     1
  238   240     1
  238   241     1
  241   242     1
  241   243     1
  241   244     1
  244   245     1
  244   246     1
  244   247     1
  247   248     1
  247   249     1
  247   250     1

[ pairs ]
; ai	aj	funct	c6	c12 or
; ai	aj	funct	fudgeQQ	q1	q2	c6	c12
    1     5     1
    1     6     1
    1     8     1
    1    15     1
    1    17     1
    1    18     1
    1    22     1
    2     4     1
    2    13     1
    2    14     1
    2    16     1
    3     4     1
    3    13     1
    3    14     1
    3    16     1
    4    10     1
    4    11     1
    4    12     1
    4    44     1
    5     9     1
    6     9     1
    7     9     1
    7    13     1
    7    14     1
    7    16     1
    8    45     1
    8    46     1
    8    52     1
    9    47     1
    9    53     1
    9    54     1
    9    55     1
   10    45     1
   10    46     1
   10    52     1
   11    45     1
   11    46     1
   11    52     1
   12    19     1
   13    15     1
   13    17     1
   13    18     1
   13    22     1
   14    17     1
   14    18     1
   14    22     1
   15    16     1
   16    20     1
   16    21     1
   16    23     1
   17    19     1
   18    19     1
   19    25     1
   19    26     1
   19    27     1
   20    24     1
   21    24     1
   22    24     1
   23    28     1
   23    29     1
   23    35     1
   24    30     1
   24    36     1
   24    37     1
   24    38     1
   25    28     1
   25    29     1
   25    35     1
   26    28     1
   26    29     1
   26    35     1
   27    31     1
   27    32     1
   27    39     1
   28    30     1
   28    36     1
   28    37     1
   28    38     1
   29    33     1
   29    34     1
   29    36     1
   29    37     1
   29    38     1
   29    61     1
   30    35     1
   30    62     1
   30    63     1
   30    64     1
   31    33     1
   31    34     1
   31    61     1
   32    65     1
   32    66     1
   32    67     1
   33    62     1
   33    63     1
   33    64     1
   34    62     1
   34    63     1
   34    64     1
   35    40     1
   35    41     1
   36    39     1
   37    39     1
   38    42     1
   38    43     1
   38   104     1
   39   105     1
   39   106     1
   39   107     1
   40    42     1
   40    43     1
   40   104     1
   41   108     1
   41   109     1
   41   110     1
   42   105     1
   42   106     1
   42   107     1
   43   105     1
   43   106     1
   43   107     1
   44    48     1
   44    49     1
   44    56     1
   45    47     1
   45    53     1
   45    54     1
   45    55     1
   46    50     1
   46    51     1
   46    53     1
   46    54     1
   46    55     1
   46   156     1
   47    52     1
   47   157     1
   47   158     1
   47   159     1
   48    50     1
   48    51     1
   48   156     1
   49   160     1
   49   161     1
   49   162     1
   50   157     1
   50   158     1
   50   159     1
   51   157     1
   51   158     1
   51   159     1
   52    57     1
   52    58     1
   53    56     1
   54    56     1
   55    59     1
   55    60     1
   55   199     1
   56   200     1
   56   201     1
   56   202     1
   57    59     1
   57    60     1
   57   199     1
   58   203     1
   58   204     1
   58   205     1
   59   200     1
   59   201     1
   59   202     1
   60   200     1
   60   201     1
   60   202     1
   61    68     1
   61    69     1
   61    70     1
   62    65     1
   62    66     1
   62    67     1
   63    65     1
   63    66     1
   63    67     1
   64    71     1
   64    72     1
   64    73     1
   65    68     1
   65    69     1
   65    70     1
   66    68     1
   66    69     1
   66    70     1
   67    74     1
   67    75     1
   67    76     1
   68    71     1
   68    72     1
   68    73     1
   69    71     1
   69    72     1
   69    73     1
   70    77     1
   70    78     1
   70    79     1
   71    74     1
   71    75     1
   71    76     1
   72    74     1
   72    75     1
   72    76     1
   73    80     1
   73    81     1
   73    82     1
   74    77     1
   74    78     1
   74    79     1
   75    77     1
   75    78     1
   75    79     1
   76    83     1
   76    84     1
   76    85     1
   77    80     1
   77    81     1
   77    82     1
   78    80     1
   78    81     1
   78    82     1
   79    86     1
   79    87     1
   79    88     1
   80    83     1
   80    84     1
   80    85     1
   81    83     1
   81    84     1
   81    85     1
   82    89     1
   82    90     1
   82    91     1
   83    86     1
   83    87     1
   83    88     1
   84    86     1
   84    87     1
   84    88     1
   85    92     1
   85    93     1
   85    94     1
   86    89     1
   86    90     1
   86    91     1
   87    89     1
   87    90     1
   87    91     1
   88    95     1
   88    96     1
   88    97     1
   89    92     1
   89    93     1
   89    94     1
   90    92     1
   90    93     1
   90    94     1
   91    98     1
   91    99     1
   91   100     1
   92    95     1
   92    96     1
   92    97     1
   93    95     1
   93    96     1
   93    97     1
   94   101     1
   94   102     1
   94   103     1
   95    98     1
   95    99     1
   95   100     1
   96    98     1
   96    99     1
   96   100     1
   98   101     1
   98   102     1
   98   103     1
   99   101     1
   99   102     1
   99   103     1
  104   111     1
  104   112     1
  104   113     1
  105   108     1
  105   109     1
  105   110     1
  106   108     1
  106   109     1
  106   110     1
  107   114     1
  107   115     1
  107   116     1
  108   111     1
  108   112     1
  108   113     1
  109   111     1
  109   112     1
  109   113     1
  110   117     1
  110   118     1
  110   119     1
  111   114     1
  111   115     1
  111   116     1
  112   114     1
  112   115     1
  112   116     1
  113   120     1
  113   121     1
  113   122     1
  114   117     1
  114   118     1
  114   119     1
  115   117     1
  115   118     1
  115   119     1
  116   123     1
  116   124     1
  116   125     1
  117   120     1
  117   121     1
  117   122     1
  118   120     1
  118   121     1
  118   122     1
  119   126     1
  119   127     1
  119   131     1
  120   123     1
  120   124     1
  120   125     1
  121   123     1
  121   124     1
  121   125     1
  122   128     1
  122   129     1
  122   130     1
  122   132     1
  122   133     1
  122   134     1
  123   126     1
  123   127     1
  123   131     1
  124   126     1
  124   127     1
  124   131     1
  125   135     1
  125   136     1
  125   137     1
  126   128     1
  126   129     1
  126   130     1
  126   132     1
  126   133     1
  126   134     1
  127   132     1
  127   133     1
  127   134     1
  128   131     1
  129   131     1
  130   131     1
  131   138     1
  131   139     1
  131   140     1
  132   135     1
  132   136     1
  132   137     1
  133   135     1
  133   136     1
  133   137     1
  134   141     1
  134   142     1
  134   143     1
  135   138     1
  135   139     1
  135   140     1
  136   138     1
  136   139     1
  136   140     1
  137   144     1
  137   145     1
  137   146     1
  138   141     1
  138   142     1
  138   143     1
  139   141     1
  139   142     1
  139   143     1
  140   147     1
  140   148     1
  140   149     1
  141   144     1
  141   145     1
  141   146     1
  142   144     1
  142   145     1
  142   146     1
  143   150     1
  143   151     1
  143   152     1
  144   147     1
  144   148     1
  144   149     1
  145   147     1
  145   148     1
  145   149     1
  146   153     1
  146   154     1
  146   155     1
  147   150     1
  147   151     1
  147   152     1
  148   150     1
  148   151     1
  148   152     1
  150   153     1
  150   154     1
  150   155     1
  151   153     1
  151   154     1
  151   155     1
  156   163     1
  156   164     1
  156   165     1
  157   160     1
  157   161     1
  157   162     1
  158   160     1
  158   161     1
  158   162     1
  159   166     1
  159   167     1
  159   168     1
  160   163     1
  160   164     1
  160   165     1
  161   163     1
  161   164     1
  161   165     1
  162   169     1
  162   170     1
  162   171     1
  163   166     1
  163   167     1
  163   168     1
  164   166     1
  164   167     1
  164   168     1
  165   172     1
  165   173     1
  165   174     1
  166   169     1
  166   170     1
  166   171     1
  167   169     1
  167   170     1
  167   171     1
  168   175     1
  168   176     1
  168   177     1
  169   172     1
  169   173     1
  169   174     1
  170   172     1
  170   173     1
  170   174     1
  171   178     1
  171   179     1
  171   180     1
  172   175     1
  172   176     1
  172   177     1
  173   175     1
  173   176     1
  173   177     1
  174   181     1
  174   182     1
  174   183     1
  175   178     1
  175   179     1
  175   180     1
  176   178     1
  176   179     1
  176   180     1
  177   184     1
  177   185     1
  177   186     1
  178   181     1
  178   182     1
  178   183     1
  179   181     1
  179   182     1
  179   183     1
  180   187     1
  180   188     1
  180   189     1
  181   184     1
  181   185     1
  181   186     1
  182   184     1
  182   185     1
  182   186     1
  183   190     1
  183   191     1
  183   192     1
  184   187     1
  184   188     1
  184   189     1
  185   187     1
  185   188     1
  185   189     1
  186   193     1
  186   194     1
  186   195     1
  187   190     1
  187   191     1
  187   192     1
  188   190     1
  188   191     1
  188   192     1
  189   196     1
  189   197     1
  189   198     1
  190   193     1
  190   194     1
  190   195     1
  191   193     1
  191   194     1
  191   195     1
  193   196     1
  193   197     1
  193   198     1
  194   196     1
  194   197     1
  194   198     1
  199   206     1
  199   207     1
  199   208     1
  200   203     1
  200   204     1
  200   205     1
  201   203     1
  201   204     1
  201   205     1
  202   209     1
  202   210     1
  202   211     1
  203   206     1
  203   207     1
  203   208     1
  204   206     1
  204   207     1
  204   208     1
  205   212     1
  205   213     1
  205   214     1
  206   209     1
  206   210     1
  206   211     1
  207   209     1
  207   210     1
  207   211     1
  208   215     1
  208   216     1
  208   217     1
  209   212     1
  209   213     1
  209   214     1
  210   212     1
  210   213     1
  210   214     1
  211   218     1
  211   219     1
  211   220     1
  212   215     1
  212   216     1
  212   217     1
  213   215     1
  213   216     1
  213   217     1
  214   221     1
  214   222     1
  214   226     1
  215   218     1
  215   219     1
  215   220     1
  216   218     1
  216   219     1
  216   220     1
  217   223     1
  217   224     1
  217   225     1
  217   227     1
  217   228     1
  217   229     1
  218   221     1
  218   222     1
  218   226     1
  219   221     1
  219   222     1
  219   226     1
  220   230     1
  220   231     1
  220   232     1
  221   223     1
  221   224     1
  221   225     1
  221   227     1
  221   228     1
  221   229     1
  222   227     1
  222   228     1
  222   229     1
  223   226     1
  224   226     1
  225   226     1
  226   233     1
  226   234     1
  226   235     1
  227   230     1
  227   231     1
  227   232     1
  228   230     1
  228   231     1
  228   232     1
  229   236     1
  229   237     1
  229   238     1
  230   233     1
  230   234     1
  230   235     1
  231   233     1
  231   234     1
  231   235     1
  232   239     1
  232   240     1
  232   241     1
  233   236     1
  233   237     1
  233   238     1
  234   236     1
  234   237     1
  234   238     1
  235   242     1
  235   243     1
  235   244     1
  236   239     1
  236   240     1
  236   241     1
  237   239     1
  237   240     1
  237   241     1
  238   245     1
  238   246     1
  238   247     1
  239   242     1
  239   243     1
  239   244     1
  240   242     1
  240   243     1
  240   244     1
  241   248     1
  241   249     1
  241   250     1
  242   245     1
  242   246     1
  242   247     1
  243   245     1
  243   246     1
  243   247     1
  245   248     1
  245   249     1
  245   250     1
  246   248     1
  246   249     1
  246   250     1

[ angles ] 
; ai	aj	ak	funct	th0	cth	S0	Kub
    2     1     3     5
    2     1     7     5
    2     1    12     5
    3     1     7     5
    3     1    12     5
    7     1    12     5
    5     4     6     5
    5     4     7     5
    5     4     8     5
    6     4     7     5
    6     4     8     5
    7     4     8     5
    1     7     4     5
    4     8     9     5
    8     9    10     5
    8     9    11     5
    8     9    44     5
   10     9    11     5
   10     9    44     5
   11     9    44     5
    1    12    13     5
    1    12    14     5
    1    12    16     5
   13    12    14     5
   13    12    16     5
   14    12    16     5
   12    14    15     5
   12    16    17     5
   12    16    18     5
   12    16    22     5
   17    16    18     5
   17    16    22     5
   18    16    22     5
   20    19    21     5
   20    19    22     5
   20    19    23     5
   21    19    22     5
   21    19    23     5
   22    19    23     5
   16    22    19     5
   19    23    24     5
   23    24    25     5
   23    24    26     5
   23    24    27     5
   25    24    26     5
   25    24    27     5
   26    24    27     5
   24    27    28     5
   24    27    29     5
   24    27    35     5
   28    27    29     5
   28    27    35     5
   29    27    35     5
   27    29    30     5
   29    30    31     5
   29    30    32     5
   31    30    32     5
   30    32    33     5
   30    32    34     5
   30    32    61     5
   33    32    34     5
   33    32    61     5
   34    32    61     5
   27    35    36     5
   27    35    37     5
   27    35    38     5
   36    35    37     5
   36    35    38     5
   37    35    38     5
   35    38    39     5
   38    39    40     5
   38    39    41     5
   40    39    41     5
   39    41    42     5
   39    41    43     5
   39    41   104     5
   42    41    43     5
   42    41   104     5
   43    41   104     5
    9    44    45     5
    9    44    46     5
    9    44    52     5
   45    44    46     5
   45    44    52     5
   46    44    52     5
   44    46    47     5
   46    47    48     5
   46    47    49     5
   48    47    49     5
   47    49    50     5
   47    49    51     5
   47    49   156     5
   50    49    51     5
   50    49   156     5
   51    49   156     5
   44    52    53     5
   44    52    54     5
   44    52    55     5
   53    52    54     5
   53    52    55     5
   54    52    55     5
   52    55    56     5
   55    56    57     5
   55    56    58     5
   57    56    58     5
   56    58    59     5
   56    58    60     5
   56    58   199     5
   59    58    60     5
   59    58   199     5
   60    58   199     5
   32    61    62     5
   32    61    63     5
   32    61    64     5
   62    61    63     5
   62    61    64     5
   63    61    64     5
   61    64    65     5
   61    64    66     5
   61    64    67     5
   65    64    66     5
   65    64    67     5
   66    64    67     5
   64    67    68     5
   64    67    69     5
   64    67    70     5
   68    67    69     5
   68    67    70     5
   69    67    70     5
   67    70    71     5
   67    70    72     5
   67    70    73     5
   71    70    72     5
   71    70    73     5
   72    70    73     5
   70    73    74     5
   70    73    75     5
   70    73    76     5
   74    73    75     5
   74    73    76     5
   75    73    76     5
   73    76    77     5
   73    76    78     5
   73    76    79     5
   77    76    78     5
   77    76    79     5
   78    76    79     5
   76    79    80     5
   76    79    81     5
   76    79    82     5
   80    79    81     5
   80    79    82     5
   81    79    82     5
   79    82    83     5
   79    82    84     5
   79    82    85     5
   83    82    84     5
   83    82    85     5
   84    82    85     5
   82    85    86     5
   82    85    87     5
   82    85    88     5
   86    85    87     5
   86    85    88     5
   87    85    88     5
   85    88    89     5
   85    88    90     5
   85    88    91     5
   89    88    90     5
   89    88    91     5
   90    88    91     5
   88    91    92     5
   88    91    93     5
   88    91    94     5
   92    91    93     5
   92    91    94     5
   93    91    94     5
   91    94    95     5
   91    94    96     5
   91    94    97     5
   95    94    96     5
   95    94    97     5
   96    94    97     5
   94    97    98     5
   94    97    99     5
   94    97   100     5
   98    97    99     5
   98    97   100     5
   99    97   100     5
   97   100   101     5
   97   100   102     5
   97   100   103     5
  101   100   102     5
  101   100   103     5
  102   100   103     5
   41   104   105     5
   41   104   106     5
   41   104   107     5
  105   104   106     5
  105   104   107     5
  106   104   107     5
  104   107   108     5
  104   107   109     5
  104   107   110     5
  108   107   109     5
  108   107   110     5
  109   107   110     5
  107   110   111     5
  107   110   112     5
  107   110   113     5
  111   110   112     5
  111   110   113     5
  112   110   113     5
  110   113   114     5
  110   113   115     5
  110   113   116     5
  114   113   115     5
  114   113   116     5
  115   113   116     5
  113   116   117     5
  113   116   118     5
  113   116   119     5
  117   116   118     5
  117   116   119     5
  118   116   119     5
  116   119   120     5
  116   119   121     5
  116   119   122     5
  120   119   121     5
  120   119   122     5
  121   119   122     5
  119   122   123     5
  119   122   124     5
  119   122   125     5
  123   122   124     5
  123   122   125     5
  124   122   125     5
  122   125   126     5
  122   125   127     5
  122   125   131     5
  126   125   127     5
  126   125   131     5
  127   125   131     5
  125   127   128     5
  125   127   129     5
  125   127   130     5
  128   127   129     5
  128   127   130     5
  129   127   130     5
  125   131   132     5
  125   131   133     5
  125   131   134     5
  132   131   133     5
  132   131   134     5
  133   131   134     5
  131   134   135     5
  131   134   136     5
  131   134   137     5
  135   134   136     5
  135   134   137     5
  136   134   137     5
  134   137   138     5
  134   137   139     5
  134   137   140     5
  138   137   139     5
  138   137   140     5
  139   137   140     5
  137   140   141     5
  137   140   142     5
  137   140   143     5
  141   140   142     5
  141   140   143     5
  142   140   143     5
  140   143   144     5
  140   143   145     5
  140   143   146     5
  144   143   145     5
  144   143   146     5
  145   143   146     5
  143   146   147     5
  143   146   148     5
  143   146   149     5
  147   146   148     5
  147   146   149     5
  148   146   149     5
  146   149   150     5
  146   149   151     5
  146   149   152     5
  150   149   151     5
  150   149   152     5
  151   149   152     5
  149   152   153     5
  149   152   154     5
  149   152   155     5
  153   152   154     5
  153   152   155     5
  154   152   155     5
   49   156   157     5
   49   156   158     5
   49   156   159     5
  157   156   158     5
  157   156   159     5
  158   156   159     5
  156   159   160     5
  156   159   161     5
  156   159   162     5
  160   159   161     5
  160   159   162     5
  161   159   162     5
  159   162   163     5
  159   162   164     5
  159   162   165     5
  163   162   164     5
  163   162   165     5
  164   162   165     5
  162   165   166     5
  162   165   167     5
  162   165   168     5
  166   165   167     5
  166   165   168     5
  167   165   168     5
  165   168   169     5
  165   168   170     5
  165   168   171     5
  169   168   170     5
  169   168   171     5
  170   168   171     5
  168   171   172     5
  168   171   173     5
  168   171   174     5
  172   171   173     5
  172   171   174     5
  173   171   174     5
  171   174   175     5
  171   174   176     5
  171   174   177     5
  175   174   176     5
  175   174   177     5
  176   174   177     5
  174   177   178     5
  174   177   179     5
  174   177   180     5
  178   177   179     5
  178   177   180     5
  179   177   180     5
  177   180   181     5
  177   180   182     5
  177   180   183     5
  181   180   182     5
  181   180   183     5
  182   180   183     5
  180   183   184     5
  180   183   185     5
  180   183   186     5
  184   183   185     5
  184   183   186     5
  185   183   186     5
  183   186   187     5
  183   186   188     5
  183   186   189     5
  187   186   188     5
  187   186   189     5
  188   186   189     5
  186   189   190     5
  186   189   191     5
  186   189   192     5
  190   189   191     5
  190   189   192     5
  191   189   192     5
  189   192   193     5
  189   192   194     5
  189   192   195     5
  193   192   194     5
  193   192   195     5
  194   192   195     5
  192   195   196     5
  192   195   197     5
  192   195   198     5
  196   195   197     5
  196   195   198     5
  197   195   198     5
   58   199   200     5
   58   199   201     5
   58   199   202     5
  200   199   201     5
  200   199   202     5
  201   199   202     5
  199   202   203     5
  199   202   204     5
  199   202   205     5
  203   202   204     5
  203   202   205     5
  204   202   205     5
  202   205   206     5
  202   205   207     5
  202   205   208     5
  206   205   207     5
  206   205   208     5
  207   205   208     5
  205   208   209     5
  205   208   210     5
  205   208   211     5
  209   208   210     5
  209   208   211     5
  210   208   211     5
  208   211   212     5
  208   211   213     5
  208   211   214     5
  212   211   213     5
  212   211   214     5
  213   211   214     5
  211   214   215     5
  211   214   216     5
  211   214   217     5
  215   214   216     5
  215   214   217     5
  216   214   217     5
  214   217   218     5
  214   217   219     5
  214   217   220     5
  218   217   219     5
  218   217   220     5
  219   217   220     5
  217   220   221     5
  217   220   222     5
  217   220   226     5
  221   220   222     5
  221   220   226     5
  222   220   226     5
  220   222   223     5
  220   222   224     5
  220   222   225     5
  223   222   224     5
  223   222   225     5
  224   222   225     5
  220   226   227     5
  220   226   228     5
  220   226   229     5
  227   226   228     5
  227   226   229     5
  228   226   229     5
  226   229   230     5
  226   229   231     5
  226   229   232     5
  230   229   231     5
  230   229   232     5
  231   229   232     5
  229   232   233     5
  229   232   234     5
  229   232   235     5
  233   232   234     5
  233   232   235     5
  234   232   235     5
  232   235   236     5
  232   235   237     5
  232   235   238     5
  236   235   237     5
  236   235   238     5
  237   235   238     5
  235   238   239     5
  235   238   240     5
  235   238   241     5
  239   238   240     5
  239   238   241     5
  240   238   241     5
  238   241   242     5
  238   241   243     5
  238   241   244     5
  242   241   243     5
  242   241   244     5
  243   241   244     5
  241   244   245     5
  241   244   246     5
  241   244   247     5
  245   244   246     5
  245   244   247     5
  246   244   247     5
  244   247   248     5
  244   247   249     5
  244   247   250     5
  248   247   249     5
  248   247   250     5
  249   247   250     5

[ dihedrals ]
; ai	aj	ak	al	funct	phi0	cp	mult
    2     1     7     4     9
    3     1     7     4     9
    2     1    12    13     9
    2     1    12    14     9
    2     1    12    16     9
    3     1    12    13     9
    3     1    12    14     9
    3     1    12    16     9
    7     1    12    13     9
    7     1    12    14     9
    7     1    12    16     9
    5     4     8     9     9
    6     4     8     9     9
    7     4     8     9     9
    4     7     1    12     9
    1     7     4     5     9
    1     7     4     6     9
    1     7     4     8     9
    4     8     9    10     9
    4     8     9    11     9
    4     8     9    44     9
    8     9    44    45     9
    8     9    44    46     9
    8     9    44    52     9
   10     9    44    45     9
   10     9    44    46     9
   10     9    44    52     9
   11     9    44    45     9
   11     9    44    46     9
   11     9    44    52     9
    1    12    14    15     9
   13    12    14    15     9
    1    12    16    17     9
    1    12    16    18     9
    1    12    16    22     9
   13    12    16    17     9
   13    12    16    18     9
   13    12    16    22     9
   14    12    16    17     9
   14    12    16    18     9
   14    12    16    22     9
   15    14    12    16     9
   12    16    22    19     9
   17    16    22    19     9
   18    16    22    19     9
   20    19    23    24     9
   21    19    23    24     9
   22    19    23    24     9
   16    22    19    20     9
   16    22    19    21     9
   16    22    19    23     9
   19    23    24    25     9
   19    23    24    26     9
   19    23    24    27     9
   23    24    27    28     9
   23    24    27    29     9
   23    24    27    35     9
   25    24    27    28     9
   25    24    27    29     9
   25    24    27    35     9
   26    24    27    28     9
   26    24    27    29     9
   26    24    27    35     9
   24    27    29    30     9
   28    27    29    30     9
   24    27    35    36     9
   24    27    35    37     9
   24    27    35    38     9
   28    27    35    36     9
   28    27    35    37     9
   28    27    35    38     9
   29    27    35    36     9
   29    27    35    37     9
   29    27    35    38     9
   30    29    27    35     9
   27    29    30    31     9
   27    29    30    32     9
   29    30    32    33     9
   29    30    32    34     9
   29    30    32    61     9
   31    30    32    33     9
   31    30    32    34     9
   31    30    32    61     9
   30    32    61    62     9
   30    32    61    63     9
   30    32    61    64     9
   33    32    61    62     9
   33    32    61    63     9
   33    32    61    64     9
   34    32    61    62     9
   34    32    61    63     9
   34    32    61    64     9
   27    35    38    39     9
   36    35    38    39     9
   37    35    38    39     9
   35    38    39    40     9
   35    38    39    41     9
   38    39    41    42     9
   38    39    41    43     9
   38    39    41   104     9
   40    39    41    42     9
   40    39    41    43     9
   40    39    41   104     9
   39    41   104   105     9
   39    41   104   106     9
   39    41   104   107     9
   42    41   104   105     9
   42    41   104   106     9
   42    41   104   107     9
   43    41   104   105     9
   43    41   104   106     9
   43    41   104   107     9
    9    44    46    47     9
   45    44    46    47     9
    9    44    52    53     9
    9    44    52    54     9
    9    44    52    55     9
   45    44    52    53     9
   45    44    52    54     9
   45    44    52    55     9
   46    44    52    53     9
   46    44    52    54     9
   46    44    52    55     9
   47    46    44    52     9
   44    46    47    48     9
   44    46    47    49     9
   46    47    49    50     9
   46    47    49    51     9
   46    47    49   156     9
   48    47    49    50     9
   48    47    49    51     9
   48    47    49   156     9
   47    49   156   157     9
   47    49   156   158     9
   47    49   156   159     9
   50    49   156   157     9
   50    49   156   158     9
   50    49   156   159     9
   51    49   156   157     9
   51    49   156   158     9
   51    49   156   159     9
   44    52    55    56     9
   53    52    55    56     9
   54    52    55    56     9
   52    55    56    57     9
   52    55    56    58     9
   55    56    58    59     9
   55    56    58    60     9
   55    56    58   199     9
   57    56    58    59     9
   57    56    58    60     9
   57    56    58   199     9
   56    58   199   200     9
   56    58   199   201     9
   56    58   199   202     9
   59    58   199   200     9
   59    58   199   201     9
   59    58   199   202     9
   60    58   199   200     9
   60    58   199   201     9
   60    58   199   202     9
   32    61    64    65     9
   32    61    64    66     9
   32    61    64    67     9
   62    61    64    65     9
   62    61    64    66     9
   62    61    64    67     9
   63    61    64    65     9
   63    61    64    66     9
   63    61    64    67     9
   61    64    67    68     9
   61    64    67    69     9
   61    64    67    70     9
   65    64    67    68     9
   65    64    67    69     9
   65    64    67    70     9
   66    64    67    68     9
   66    64    67    69     9
   66    64    67    70     9
   64    67    70    71     9
   64    67    70    72     9
   64    67    70    73     9
   68    67    70    71     9
   68    67    70    72     9
   68    67    70    73     9
   69    67    70    71     9
   69    67    70    72     9
   69    67    70    73     9
   67    70    73    74     9
   67    70    73    75     9
   67    70    73    76     9
   71    70    73    74     9
   71    70    73    75     9
   71    70    73    76     9
   72    70    73    74     9
   72    70    73    75     9
   72    70    73    76     9
   70    73    76    77     9
   70    73    76    78     9
   70    73    76    79     9
   74    73    76    77     9
   74    73    76    78     9
   74    73    76    79     9
   75    73    76    77     9
   75    73    76    78     9
   75    73    76    79     9
   73    76    79    80     9
   73    76    79    81     9
   73    76    79    82     9
   77    76    79    80     9
   77    76    79    81     9
   77    76    79    82     9
   78    76    79    80     9
   78    76    79    81     9
   78    76    79    82     9
   76    79    82    83     9
   76    79    82    84     9
   76    79    82    85     9
   80    79    82    83     9
   80    79    82    84     9
   80    79    82    85     9
   81    79    82    83     9
   81    79    82    84     9
   81    79    82    85     9
   79    82    85    86     9
   79    82    85    87     9
   79    82    85    88     9
   83    82    85    86     9
   83    82    85    87     9
   83    82    85    88     9
   84    82    85    86     9
   84    82    85    87     9
   84    82    85    88     9
   82    85    88    89     9
   82    85    88    90     9
   82    85    88    91     9
   86    85    88    89     9
   86    85    88    90     9
   86    85    88    91     9
   87    85    88    89     9
   87    85    88    90     9
   87    85    88    91     9
   85    88    91    92     9
   85    88    91    93     9
   85    88    91    94     9
   89    88    91    92     9
   89    88    91    93     9
   89    88    91    94     9
   90    88    91    92     9
   90    88    91    93     9
   90    88    91    94     9
   88    91    94    95     9
   88    91    94    96     9
   88    91    94    97     9
   92    91    94    95     9
   92    91    94    96     9
   92    91    94    97     9
   93    91    94    95     9
   93    91    94    96     9
   93    91    94    97     9
   91    94    97    98     9
   91    94    97    99     9
   91    94    97   100     9
   95    94    97    98     9
   95    94    97    99     9
   95    94    97   100     9
   96    94    97    98     9
   96    94    97    99     9
   96    94    97   100     9
   94    97   100   101     9
   94    97   100   102     9
   94    97   100   103     9
   98    97   100   101     9
   98    97   100   102     9
   98    97   100   103     9
   99    97   100   101     9
   99    97   100   102     9
   99    97   100   103     9
   41   104   107   108     9
   41   104   107   109     9
   41   104   107   110     9
  105   104   107   108     9
  105   104   107   109     9
  105   104   107   110     9
  106   104   107   108     9
  106   104   107   109     9
  106   104   107   110     9
  104   107   110   111     9
  104   107   110   112     9
  104   107   110   113     9
  108   107   110   111     9
  108   107   110   112     9
  108   107   110   113     9
  109   107   110   111     9
  109   107   110   112     9
  109   107   110   113     9
  107   110   113   114     9
  107   110   113   115     9
  107   110   113   116     9
  111   110   113   114     9
  111   110   113   115     9
  111   110   113   116     9
  112   110   113   114     9
  112   110   113   115     9
  112   110   113   116     9
  110   113   116   117     9
  110   113   116   118     9
  110   113   116   119     9
  114   113   116   117     9
  114   113   116   118     9
  114   113   116   119     9
  115   113   116   117     9
  115   113   116   118     9
  115   113   116   119     9
  113   116   119   120     9
  113   116   119   121     9
  113   116   119   122     9
  117   116   119   120     9
  117   116   119   121     9
  117   116   119   122     9
  118   116   119   120     9
  118   116   119   121     9
  118   116   119   122     9
  116   119   122   123     9
  116   119   122   124     9
  116   119   122   125     9
  120   119   122   123     9
  120   119   122   124     9
  120   119   122   125     9
  121   119   122   123     9
  121   119   122   124     9
  121   119   122   125     9
  119   122   125   126     9
  119   122   125   127     9
  119   122   125   131     9
  123   122   125   126     9
  123   122   125   127     9
  123   122   125   131     9
  124   122   125   126     9
  124   122   125   127     9
  124   122   125   131     9
  122   125   127   128     9
  122   125   127   129     9
  122   125   127   130     9
  126   125   127   128     9
  126   125   127   129     9
  126   125   127   130     9
  122   125   131   132     9
  122   125   131   133     9
  122   125   131   134     9
  126   125   131   132     9
  126   125   131   133     9
  126   125   131   134     9
  127   125   131   132     9
  127   125   131   133     9
  127   125   131   134     9
  128   127   125   131     9
  129   127   125   131     9
  130   127   125   131     9
  125   131   134   135     9
  125   131   134   136     9
  125   131   134   137     9
  132   131   134   135     9
  132   131   134   136     9
  132   131   134   137     9
  133   131   134   135     9
  133   131   134   136     9
  133   131   134   137     9
  131   134   137   138     9
  131   134   137   139     9
  131   134   137   140     9
  135   134   137   138     9
  135   134   137   139     9
  135   134   137   140     9
  136   134   137   138     9
  136   134   137   139     9
  136   134   137   140     9
  134   137   140   141     9
  134   137   140   142     9
  134   137   140   143     9
  138   137   140   141     9
  138   137   140   142     9
  138   137   140   143     9
  139   137   140   141     9
  139   137   140   142     9
  139   137   140   143     9
  137   140   143   144     9
  137   140   143   145     9
  137   140   143   146     9
  141   140   143   144     9
  141   140   143   145     9
  141   140   143   146     9
  142   140   143   144     9
  142   140   143   145     9
  142   140   143   146     9
  140   143   146   147     9
  140   143   146   148     9
  140   143   146   149     9
  144   143   146   147     9
  144   143   146   148     9
  144   143   146   149     9
  145   143   146   147     9
  145   143   146   148     9
  145   143   146   149     9
  143   146   149   150     9
  143   146   149   151     9
  143   146   149   152     9
  147   146   149   150     9
  147   146   149   151     9
  147   146   149   152     9
  148   146   149   150     9
  148   146   149   151     9
  148   146   149   152     9
  146   149   152   153     9
  146   149   152   154     9
  146   149   152   155     9
  150   149   152   153     9
  150   149   152   154     9
  150   149   152   155     9
  151   149   152   153     9
  151   149   152   154     9
  151   149   152   155     9
   49   156   159   160     9
   49   156   159   161     9
   49   156   159   162     9
  157   156   159   160     9
  157   156   159   161     9
  157   156   159   162     9
  158   156   159   160     9
  158   156   159   161     9
  158   156   159   162     9
  156   159   162   163     9
  156   159   162   164     9
  156   159   162   165     9
  160   159   162   163     9
  160   159   162   164     9
  160   159   162   165     9
  161   159   162   163     9
  161   159   162   164     9
  161   159   162   165     9
  159   162   165   166     9
  159   162   165   167     9
  159   162   165   168     9
  163   162   165   166     9
  163   162   165   167     9
  163   162   165   168     9
  164   162   165   166     9
  164   162   165   167     9
  164   162   165   168     9
  162   165   168   169     9
  162   165   168   170     9
  162   165   168   171     9
  166   165   168   169     9
  166   165   168   170     9
  166   165   168   171     9
  167   165   168   169     9
  167   165   168   170     9
  167   165   168   171     9
  165   168   171   172     9
  165   168   171   173     9
  165   168   171   174     9
  169   168   171   172     9
  169   168   171   173     9
  169   168   171   174     9
  170   168   171   172     9
  170   168   171   173     9
  170   168   171   174     9
  168   171   174   175     9
  168   171   174   176     9
  168   171   174   177     9
  172   171   174   175     9
  172   171   174   176     9
  172   171   174   177     9
  173   171   174   175     9
  173   171   174   176     9
  173   171   174   177     9
  171   174   177   178     9
  171   174   177   179     9
  171   174   177   180     9
  175   174   177   178     9
  175   174   177   179     9
  175   174   177   180     9
  176   174   177   178     9
  176   174   177   179     9
  176   174   177   180     9
  174   177   180   181     9
  174   177   180   182     9
  174   177   180   183     9
  178   177   180   181     9
  178   177   180   182     9
  178   177   180   183     9
  179   177   180   181     9
  179   177   180   182     9
  179   177   180   183     9
  177   180   183   184     9
  177   180   183   185     9
  177   180   183   186     9
  181   180   183   184     9
  181   180   183   185     9
  181   180   183   186     9
  182   180   183   184     9
  182   180   183   185     9
  182   180   183   186     9
  180   183   186   187     9
  180   183   186   188     9
  180   183   186   189     9
  184   183   186   187     9
  184   183   186   188     9
  184   183   186   189     9
  185   183   186   187     9
  185   183   186   188     9
  185   183   186   189     9
  183   186   189   190     9
  183   186   189   191     9
  183   186   189   192     9
  187   186   189   190     9
  187   186   189   191     9
  187   186   189   192     9
  188   186   189   190     9
  188   186   189   191     9
  188   186   189   192     9
  186   189   192   193     9
  186   189   192   194     9
  186   189   192   195     9
  190   189   192   193     9
  190   189   192   194     9
  190   189   192   195     9
  191   189   192   193     9
  191   189   192   194     9
  191   189   192   195     9
  189   192   195   196     9
  189   192   195   197     9
  189   192   195   198     9
  193   192   195   196     9
  193   192   195   197     9
  193   192   195   198     9
  194   192   195   196     9
  194   192   195   197     9
  194   192   195   198     9
   58   199   202   203     9
   58   199   202   204     9
   58   199   202   205     9
  200   199   202   203     9
  200   199   202   204     9
  200   199   202   205     9
  201   199   202   203     9
  201   199   202   204     9
  201   199   202   205     9
  199   202   205   206     9
  199   202   205   207     9
  199   202   205   208     9
  203   202   205   206     9
  203   202   205   207     9
  203   202   205   208     9
  204   202   205   206     9
  204   202   205   207     9
  204   202   205   208     9
  202   205   208   209     9
  202   205   208   210     9
  202   205   208   211     9
  206   205   208   209     9
  206   205   208   210     9
  206   205   208   211     9
  207   205   208   209     9
  207   205   208   210     9
  207   205   208   211     9
  205   208   211   212     9
  205   208   211   213     9
  205   208   211   214     9
  209   208   211   212     9
  209   208   211   213     9
  209   208   211   214     9
  210   208   211   212     9
  210   208   211   213     9
  210   208   211   214     9
  208   211   214   215     9
  208   211   214   216     9
  208   211   214   217     9
  212   211   214   215     9
  212   211   214   216     9
  212   211   214   217     9
  213   211   214   215     9
  213   211   214   216     9
  213   211   214   217     9
  211   214   217   218     9
  211   214   217   219     9
  211   214   217   220     9
  215   214   217   218     9
  215   214   217   219     9
  215   214   217   220     9
  216   214   217   218     9
  216   214   217   219     9
  216   214   217   220     9
  214   217   220   221     9
  214   217   220   222     9
  214   217   220   226     9
  218   217   220   221     9
  218   217   220   222     9
  218   217   220   226     9
  219   217   220   221     9
  219   217   220   222     9
  219   217   220   226     9
  217   220   222   223     9
  217   220   222   224     9
  217   220   222   225     9
  221   220   222   223     9
  221   220   222   224     9
  221   220   222   225     9
  217   220   226   227     9
  217   220   226   228     9
  217   220   226   229     9
  221   220   226   227     9
  221   220   226   228     9
  221   220   226   229     9
  222   220   226   227     9
  222   220   226   228     9
  222   220   226   229     9
  223   222   220   226     9
  224   222   220   226     9
  225   222   220   226     9
  220   226   229   230     9
  220   226   229   231     9
  220   226   229   232     9
  227   226   229   230     9
  227   226   229   231     9
  227   226   229   232     9
  228   226   229   230     9
  228   226   229   231     9
  228   226   229   232     9
  226   229   232   233     9
  226   229   232   234     9
  226   229   232   235     9
  230   229   232   233     9
  230   229   232   234     9
  230   229   232   235     9
  231   229   232   233     9
  231   229   232   234     9
  231   229   232   235     9
  229   232   235   236     9
  229   232   235   237     9
  229   232   235   238     9
  233   232   235   236     9
  233   232   235   237     9
  233   232   235   238     9
  234   232   235   236     9
  234   232   235   237     9
  234   232   235   238     9
  232   235   238   239     9
  232   235   238   240     9
  232   235   238   241     9
  236   235   238   239     9
  236   235   238   240     9
  236   235   238   241     9
  237   235   238   239     9
  237   235   238   240     9
  237   235   238   241     9
  235   238   241   242     9
  235   238   241   243     9
  235   238   241   244     9
  239   238   241   242     9
  239   238   241   243     9
  239   238   241   244     9
  240   238   241   242     9
  240   238   241   243     9
  240   238   241   244     9
  238   241   244   245     9
  238   241   244   246     9
  238   241   244   247     9
  242   241   244   245     9
  242   241   244   246     9
  242   241   244   247     9
  243   241   244   245     9
  243   241   244   246     9
  243   241   244   247     9
  241   244   247   248     9
  241   244   247   249     9
  241   244   247   250     9
  245   244   247   248     9
  245   244   247   249     9
  245   244   247   250     9
  246   244   247   248     9
  246   244   247   249     9
  246   244   247   250     9

[ dihedrals ]
; ai	aj	ak	al	funct	q0	cq
   30    29    32    31     2
   39    38    41    40     2
   47    46    49    48     2
   56    55    58    57     2

#ifdef POSRES
[ position_restraints ]
#endif

#ifdef DIHRES
[ dihedral_restraints ]
   16    14    12     1     1    120.0      2.5       DIHRES_FC
   24    29    27    35     1    120.0      2.5       DIHRES_FC
    9    46    44    52     1    120.0      2.5       DIHRES_FC
  122   127   125   131     1    120.0      2.5       DIHRES_FC
  217   222   220   226     1    120.0      2.5       DIHRES_FC
#endif
