;;
;; Generated by CHARMM-GUI FF-Converter
;;
;; Correspondance:
;; jul316@lehigh.edu or wonpil@lehigh.edu
;;
;; GROMACS topology file for ONATG
;;


[ moleculetype ]
; name	nrexcl
ONATG	     3

[ atoms ]
; nr	type	resnr	residu	atom	cgnr	charge	mass
     1       CTL2    193    ONATG     C1      1     0.080000    12.0110   ; qtot  0.080
     2       HAL2    193    ONATG     HA      2     0.090000     1.0080   ; qtot  0.170
     3       HAL2    193    ONATG     HB      3     0.090000     1.0080   ; qtot  0.260
     4        OSL    193    ONATG    O11      4    -0.490000    15.9994   ; qtot -0.230
     5        OBL    193    ONATG    O12      5    -0.630000    15.9994   ; qtot -0.860
     6         CL    193    ONATG    C11      6     0.900000    12.0110   ; qtot  0.040
     7       CTL2    193    ONATG    C12      7    -0.220000    12.0110   ; qtot -0.180
     8       HAL2    193    ONATG    H2P      8     0.090000     1.0080   ; qtot -0.090
     9       HAL2    193    ONATG    H2Q      9     0.090000     1.0080   ; qtot  0.000
    10       CTL1    193    ONATG     C2     10     0.170000    12.0110   ; qtot  0.170
    11       HAL1    193    ONATG     HS     11     0.090000     1.0080   ; qtot  0.260
    12        OSL    193    ONATG    O21     12    -0.490000    15.9994   ; qtot -0.230
    13         CL    193    ONATG    C21     13     0.900000    12.0110   ; qtot  0.670
    14        OBL    193    ONATG    O22     14    -0.630000    15.9994   ; qtot  0.040
    15       CTL2    193    ONATG    C22     15    -0.220000    12.0110   ; qtot -0.180
    16       HAL2    193    ONATG    H2R     16     0.090000     1.0080   ; qtot -0.090
    17       HAL2    193    ONATG    H2S     17     0.090000     1.0080   ; qtot  0.000
    18       CTL2    193    ONATG     C3     18     0.080000    12.0110   ; qtot  0.080
    19       HAL2    193    ONATG     HX     19     0.090000     1.0080   ; qtot  0.170
    20       HAL2    193    ONATG     HY     20     0.090000     1.0080   ; qtot  0.260
    21        OSL    193    ONATG    O31     21    -0.490000    15.9994   ; qtot -0.230
    22         CL    193    ONATG    C31     22     0.900000    12.0110   ; qtot  0.670
    23        OBL    193    ONATG    O32     23    -0.630000    15.9994   ; qtot  0.040
    24       CTL2    193    ONATG    C32     24    -0.220000    12.0110   ; qtot -0.180
    25       HAL2    193    ONATG    H2X     25     0.090000     1.0080   ; qtot -0.090
    26       HAL2    193    ONATG    H2Y     26     0.090000     1.0080   ; qtot  0.000
    27       CTL2    193    ONATG    C13     27    -0.180000    12.0110   ; qtot -0.180
    28       HAL2    193    ONATG    H3P     28     0.090000     1.0080   ; qtot -0.090
    29       HAL2    193    ONATG    H3Q     29     0.090000     1.0080   ; qtot  0.000
    30       CTL2    193    ONATG    C14     30    -0.180000    12.0110   ; qtot -0.180
    31       HAL2    193    ONATG    H4P     31     0.090000     1.0080   ; qtot -0.090
    32       HAL2    193    ONATG    H4Q     32     0.090000     1.0080   ; qtot  0.000
    33       CTL2    193    ONATG    C15     33    -0.180000    12.0110   ; qtot -0.180
    34       HAL2    193    ONATG    H5P     34     0.090000     1.0080   ; qtot -0.090
    35       HAL2    193    ONATG    H5Q     35     0.090000     1.0080   ; qtot  0.000
    36       CTL2    193    ONATG    C16     36    -0.180000    12.0110   ; qtot -0.180
    37       HAL2    193    ONATG    H6P     37     0.090000     1.0080   ; qtot -0.090
    38       HAL2    193    ONATG    H6Q     38     0.090000     1.0080   ; qtot  0.000
    39       CTL2    193    ONATG    C17     39    -0.180000    12.0110   ; qtot -0.180
    40       HAL2    193    ONATG    H7P     40     0.090000     1.0080   ; qtot -0.090
    41       HAL2    193    ONATG    H7Q     41     0.090000     1.0080   ; qtot  0.000
    42       CTL2    193    ONATG    C18     42    -0.180000    12.0110   ; qtot -0.180
    43       HAL2    193    ONATG    H8P     43     0.090000     1.0080   ; qtot -0.090
    44       HAL2    193    ONATG    H8Q     44     0.090000     1.0080   ; qtot  0.000
    45       CEL1    193    ONATG    C19     45    -0.150000    12.0110   ; qtot -0.150
    46       HEL1    193    ONATG    H9P     46     0.150000     1.0080   ; qtot  0.000
    47       CEL1    193    ONATG   C110     47    -0.150000    12.0110   ; qtot -0.150
    48       HEL1    193    ONATG   H10P     48     0.150000     1.0080   ; qtot  0.000
    49       CTL2    193    ONATG   C111     49    -0.180000    12.0110   ; qtot -0.180
    50       HAL2    193    ONATG   H11P     50     0.090000     1.0080   ; qtot -0.090
    51       HAL2    193    ONATG   H11Q     51     0.090000     1.0080   ; qtot  0.000
    52       CTL2    193    ONATG   C112     52    -0.180000    12.0110   ; qtot -0.180
    53       HAL2    193    ONATG   H12P     53     0.090000     1.0080   ; qtot -0.090
    54       HAL2    193    ONATG   H12Q     54     0.090000     1.0080   ; qtot  0.000
    55       CTL2    193    ONATG   C113     55    -0.180000    12.0110   ; qtot -0.180
    56       HAL2    193    ONATG   H13P     56     0.090000     1.0080   ; qtot -0.090
    57       HAL2    193    ONATG   H13Q     57     0.090000     1.0080   ; qtot  0.000
    58       CTL2    193    ONATG   C114     58    -0.180000    12.0110   ; qtot -0.180
    59       HAL2    193    ONATG   H14P     59     0.090000     1.0080   ; qtot -0.090
    60       HAL2    193    ONATG   H14Q     60     0.090000     1.0080   ; qtot  0.000
    61       CTL2    193    ONATG   C115     61    -0.180000    12.0110   ; qtot -0.180
    62       HAL2    193    ONATG   H15P     62     0.090000     1.0080   ; qtot -0.090
    63       HAL2    193    ONATG   H15Q     63     0.090000     1.0080   ; qtot  0.000
    64       CTL2    193    ONATG   C116     64    -0.180000    12.0110   ; qtot -0.180
    65       HAL2    193    ONATG   H16P     65     0.090000     1.0080   ; qtot -0.090
    66       HAL2    193    ONATG   H16Q     66     0.090000     1.0080   ; qtot  0.000
    67       CTL2    193    ONATG   C117     67    -0.180000    12.0110   ; qtot -0.180
    68       HAL2    193    ONATG   H17P     68     0.090000     1.0080   ; qtot -0.090
    69       HAL2    193    ONATG   H17Q     69     0.090000     1.0080   ; qtot  0.000
    70       CTL3    193    ONATG   C118     70    -0.270000    12.0110   ; qtot -0.270
    71       HAL3    193    ONATG   H18P     71     0.090000     1.0080   ; qtot -0.180
    72       HAL3    193    ONATG   H18Q     72     0.090000     1.0080   ; qtot -0.090
    73       HAL3    193    ONATG   H18O     73     0.090000     1.0080   ; qtot -0.000
    74       CTL2    193    ONATG    C23     74    -0.180000    12.0110   ; qtot -0.180
    75       HAL2    193    ONATG    H3R     75     0.090000     1.0080   ; qtot -0.090
    76       HAL2    193    ONATG    H3S     76     0.090000     1.0080   ; qtot -0.000
    77       CTL2    193    ONATG    C24     77    -0.180000    12.0110   ; qtot -0.180
    78       HAL2    193    ONATG    H4R     78     0.090000     1.0080   ; qtot -0.090
    79       HAL2    193    ONATG    H4S     79     0.090000     1.0080   ; qtot -0.000
    80       CTL2    193    ONATG    C25     80    -0.180000    12.0110   ; qtot -0.180
    81       HAL2    193    ONATG    H5R     81     0.090000     1.0080   ; qtot -0.090
    82       HAL2    193    ONATG    H5S     82     0.090000     1.0080   ; qtot -0.000
    83       CTL2    193    ONATG    C26     83    -0.180000    12.0110   ; qtot -0.180
    84       HAL2    193    ONATG    H6R     84     0.090000     1.0080   ; qtot -0.090
    85       HAL2    193    ONATG    H6S     85     0.090000     1.0080   ; qtot -0.000
    86       CTL2    193    ONATG    C27     86    -0.180000    12.0110   ; qtot -0.180
    87       HAL2    193    ONATG    H7R     87     0.090000     1.0080   ; qtot -0.090
    88       HAL2    193    ONATG    H7S     88     0.090000     1.0080   ; qtot -0.000
    89       CTL2    193    ONATG    C28     89    -0.180000    12.0110   ; qtot -0.180
    90       HAL2    193    ONATG    H8R     90     0.090000     1.0080   ; qtot -0.090
    91       HAL2    193    ONATG    H8S     91     0.090000     1.0080   ; qtot -0.000
    92       CEL1    193    ONATG    C29     92    -0.150000    12.0110   ; qtot -0.150
    93       HEL1    193    ONATG    H9R     93     0.150000     1.0080   ; qtot -0.000
    94       CEL1    193    ONATG   C210     94    -0.150000    12.0110   ; qtot -0.150
    95       HEL1    193    ONATG   H10R     95     0.150000     1.0080   ; qtot -0.000
    96       CTL2    193    ONATG   C211     96    -0.180000    12.0110   ; qtot -0.180
    97       HAL2    193    ONATG   H11R     97     0.090000     1.0080   ; qtot -0.090
    98       HAL2    193    ONATG   H11S     98     0.090000     1.0080   ; qtot -0.000
    99       CEL1    193    ONATG   C212     99    -0.150000    12.0110   ; qtot -0.150
   100       HEL1    193    ONATG   H12R    100     0.150000     1.0080   ; qtot -0.000
   101       CEL1    193    ONATG   C213    101    -0.150000    12.0110   ; qtot -0.150
   102       HEL1    193    ONATG   H13R    102     0.150000     1.0080   ; qtot -0.000
   103       CTL2    193    ONATG   C214    103    -0.180000    12.0110   ; qtot -0.180
   104       HAL2    193    ONATG   H14R    104     0.090000     1.0080   ; qtot -0.090
   105       HAL2    193    ONATG   H14S    105     0.090000     1.0080   ; qtot -0.000
   106       CEL1    193    ONATG   C215    106    -0.150000    12.0110   ; qtot -0.150
   107       HEL1    193    ONATG   H15R    107     0.150000     1.0080   ; qtot -0.000
   108       CEL1    193    ONATG   C216    108    -0.150000    12.0110   ; qtot -0.150
   109       HEL1    193    ONATG   H16R    109     0.150000     1.0080   ; qtot -0.000
   110       CTL2    193    ONATG   C217    110    -0.180000    12.0110   ; qtot -0.180
   111       HAL2    193    ONATG   H17R    111     0.090000     1.0080   ; qtot -0.090
   112       HAL2    193    ONATG   H17S    112     0.090000     1.0080   ; qtot -0.000
   113       CTL3    193    ONATG   C218    113    -0.270000    12.0110   ; qtot -0.270
   114       HAL3    193    ONATG   H18R    114     0.090000     1.0080   ; qtot -0.180
   115       HAL3    193    ONATG   H18S    115     0.090000     1.0080   ; qtot -0.090
   116       HAL3    193    ONATG   H18T    116     0.090000     1.0080   ; qtot -0.000
   117       CTL2    193    ONATG    C33    117    -0.180000    12.0110   ; qtot -0.180
   118       HAL2    193    ONATG    H3X    118     0.090000     1.0080   ; qtot -0.090
   119       HAL2    193    ONATG    H3Y    119     0.090000     1.0080   ; qtot -0.000
   120       CTL2    193    ONATG    C34    120    -0.180000    12.0110   ; qtot -0.180
   121       HAL2    193    ONATG    H4X    121     0.090000     1.0080   ; qtot -0.090
   122       HAL2    193    ONATG    H4Y    122     0.090000     1.0080   ; qtot -0.000
   123       CTL2    193    ONATG    C35    123    -0.180000    12.0110   ; qtot -0.180
   124       HAL2    193    ONATG    H5X    124     0.090000     1.0080   ; qtot -0.090
   125       HAL2    193    ONATG    H5Y    125     0.090000     1.0080   ; qtot -0.000
   126       CTL2    193    ONATG    C36    126    -0.180000    12.0110   ; qtot -0.180
   127       HAL2    193    ONATG    H6X    127     0.090000     1.0080   ; qtot -0.090
   128       HAL2    193    ONATG    H6Y    128     0.090000     1.0080   ; qtot -0.000
   129       CTL2    193    ONATG    C37    129    -0.180000    12.0110   ; qtot -0.180
   130       HAL2    193    ONATG    H7X    130     0.090000     1.0080   ; qtot -0.090
   131       HAL2    193    ONATG    H7Y    131     0.090000     1.0080   ; qtot -0.000
   132       CTL2    193    ONATG    C38    132    -0.180000    12.0110   ; qtot -0.180
   133       HAL2    193    ONATG    H8X    133     0.090000     1.0080   ; qtot -0.090
   134       HAL2    193    ONATG    H8Y    134     0.090000     1.0080   ; qtot -0.000
   135       CTL2    193    ONATG    C39    135    -0.180000    12.0110   ; qtot -0.180
   136       HAL2    193    ONATG    H9X    136     0.090000     1.0080   ; qtot -0.090
   137       HAL2    193    ONATG    H9Y    137     0.090000     1.0080   ; qtot -0.000
   138       CTL2    193    ONATG   C310    138    -0.180000    12.0110   ; qtot -0.180
   139       HAL2    193    ONATG   H10X    139     0.090000     1.0080   ; qtot -0.090
   140       HAL2    193    ONATG   H10Y    140     0.090000     1.0080   ; qtot -0.000
   141       CTL2    193    ONATG   C311    141    -0.180000    12.0110   ; qtot -0.180
   142       HAL2    193    ONATG   H11X    142     0.090000     1.0080   ; qtot -0.090
   143       HAL2    193    ONATG   H11Y    143     0.090000     1.0080   ; qtot -0.000
   144       CTL2    193    ONATG   C312    144    -0.180000    12.0110   ; qtot -0.180
   145       HAL2    193    ONATG   H12X    145     0.090000     1.0080   ; qtot -0.090
   146       HAL2    193    ONATG   H12Y    146     0.090000     1.0080   ; qtot -0.000
   147       CTL2    193    ONATG   C313    147    -0.180000    12.0110   ; qtot -0.180
   148       HAL2    193    ONATG   H13X    148     0.090000     1.0080   ; qtot -0.090
   149       HAL2    193    ONATG   H13Y    149     0.090000     1.0080   ; qtot -0.000
   150       CTL2    193    ONATG   C314    150    -0.180000    12.0110   ; qtot -0.180
   151       HAL2    193    ONATG   H14X    151     0.090000     1.0080   ; qtot -0.090
   152       HAL2    193    ONATG   H14Y    152     0.090000     1.0080   ; qtot -0.000
   153       CTL2    193    ONATG   C315    153    -0.180000    12.0110   ; qtot -0.180
   154       HAL2    193    ONATG   H15X    154     0.090000     1.0080   ; qtot -0.090
   155       HAL2    193    ONATG   H15Y    155     0.090000     1.0080   ; qtot -0.000
   156       CTL2    193    ONATG   C316    156    -0.180000    12.0110   ; qtot -0.180
   157       HAL2    193    ONATG   H16X    157     0.090000     1.0080   ; qtot -0.090
   158       HAL2    193    ONATG   H16Y    158     0.090000     1.0080   ; qtot -0.000
   159       CTL2    193    ONATG   C317    159    -0.180000    12.0110   ; qtot -0.180
   160       HAL2    193    ONATG   H17X    160     0.090000     1.0080   ; qtot -0.090
   161       HAL2    193    ONATG   H17Y    161     0.090000     1.0080   ; qtot -0.000
   162       CTL2    193    ONATG   C318    162    -0.180000    12.0110   ; qtot -0.180
   163       HAL2    193    ONATG   H18X    163     0.090000     1.0080   ; qtot -0.090
   164       HAL2    193    ONATG   H18Y    164     0.090000     1.0080   ; qtot -0.000
   165       CTL2    193    ONATG   C319    165    -0.180000    12.0110   ; qtot -0.180
   166       HAL2    193    ONATG   H19X    166     0.090000     1.0080   ; qtot -0.090
   167       HAL2    193    ONATG   H19Y    167     0.090000     1.0080   ; qtot -0.000
   168       CTL3    193    ONATG   C320    168    -0.270000    12.0110   ; qtot -0.270
   169       HAL3    193    ONATG   H20X    169     0.090000     1.0080   ; qtot -0.180
   170       HAL3    193    ONATG   H20Y    170     0.090000     1.0080   ; qtot -0.090
   171       HAL3    193    ONATG   H20Z    171     0.090000     1.0080   ; qtot -0.000

[ bonds ]
; ai	aj	funct	b0	Kb
    1     2     1
    1     3     1
    1     4     1
    1    10     1
    4     6     1
    6     5     1
    6     7     1
    7     8     1
    7     9     1
    7    27     1
   10    11     1
   10    12     1
   10    18     1
   12    13     1
   13    14     1
   13    15     1
   15    16     1
   15    17     1
   15    74     1
   18    19     1
   18    20     1
   18    21     1
   21    22     1
   22    23     1
   22    24     1
   24    25     1
   24    26     1
   24   117     1
   27    28     1
   27    29     1
   27    30     1
   30    31     1
   30    32     1
   30    33     1
   33    34     1
   33    35     1
   33    36     1
   36    37     1
   36    38     1
   36    39     1
   39    40     1
   39    41     1
   39    42     1
   42    43     1
   42    44     1
   42    45     1
   45    46     1
   45    47     1
   47    48     1
   47    49     1
   49    50     1
   49    51     1
   49    52     1
   52    53     1
   52    54     1
   52    55     1
   55    56     1
   55    57     1
   55    58     1
   58    59     1
   58    60     1
   58    61     1
   61    62     1
   61    63     1
   61    64     1
   64    65     1
   64    66     1
   64    67     1
   67    68     1
   67    69     1
   67    70     1
   70    71     1
   70    72     1
   70    73     1
   74    75     1
   74    76     1
   74    77     1
   77    78     1
   77    79     1
   77    80     1
   80    81     1
   80    82     1
   80    83     1
   83    84     1
   83    85     1
   83    86     1
   86    87     1
   86    88     1
   86    89     1
   89    90     1
   89    91     1
   89    92     1
   92    93     1
   92    94     1
   94    95     1
   94    96     1
   96    97     1
   96    98     1
   96    99     1
   99   100     1
   99   101     1
  101   102     1
  101   103     1
  103   104     1
  103   105     1
  103   106     1
  106   107     1
  106   108     1
  108   109     1
  108   110     1
  110   111     1
  110   112     1
  110   113     1
  113   114     1
  113   115     1
  113   116     1
  117   118     1
  117   119     1
  117   120     1
  120   121     1
  120   122     1
  120   123     1
  123   124     1
  123   125     1
  123   126     1
  126   127     1
  126   128     1
  126   129     1
  129   130     1
  129   131     1
  129   132     1
  132   133     1
  132   134     1
  132   135     1
  135   136     1
  135   137     1
  135   138     1
  138   139     1
  138   140     1
  138   141     1
  141   142     1
  141   143     1
  141   144     1
  144   145     1
  144   146     1
  144   147     1
  147   148     1
  147   149     1
  147   150     1
  150   151     1
  150   152     1
  150   153     1
  153   154     1
  153   155     1
  153   156     1
  156   157     1
  156   158     1
  156   159     1
  159   160     1
  159   161     1
  159   162     1
  162   163     1
  162   164     1
  162   165     1
  165   166     1
  165   167     1
  165   168     1
  168   169     1
  168   170     1
  168   171     1

[ pairs ]
; ai	aj	funct	c6	c12 or
; ai	aj	funct	fudgeQQ	q1	q2	c6	c12
    1     5     1
    1     7     1
    1    13     1
    1    19     1
    1    20     1
    1    21     1
    2     6     1
    2    11     1
    2    12     1
    2    18     1
    3     6     1
    3    11     1
    3    12     1
    3    18     1
    4     8     1
    4     9     1
    4    11     1
    4    12     1
    4    18     1
    4    27     1
    5     8     1
    5     9     1
    5    27     1
    6    10     1
    6    28     1
    6    29     1
    6    30     1
    7    31     1
    7    32     1
    7    33     1
    8    28     1
    8    29     1
    8    30     1
    9    28     1
    9    29     1
    9    30     1
   10    14     1
   10    15     1
   10    22     1
   11    13     1
   11    19     1
   11    20     1
   11    21     1
   12    16     1
   12    17     1
   12    19     1
   12    20     1
   12    21     1
   12    74     1
   13    18     1
   13    75     1
   13    76     1
   13    77     1
   14    16     1
   14    17     1
   14    74     1
   15    78     1
   15    79     1
   15    80     1
   16    75     1
   16    76     1
   16    77     1
   17    75     1
   17    76     1
   17    77     1
   18    23     1
   18    24     1
   19    22     1
   20    22     1
   21    25     1
   21    26     1
   21   117     1
   22   118     1
   22   119     1
   22   120     1
   23    25     1
   23    26     1
   23   117     1
   24   121     1
   24   122     1
   24   123     1
   25   118     1
   25   119     1
   25   120     1
   26   118     1
   26   119     1
   26   120     1
   27    34     1
   27    35     1
   27    36     1
   28    31     1
   28    32     1
   28    33     1
   29    31     1
   29    32     1
   29    33     1
   30    37     1
   30    38     1
   30    39     1
   31    34     1
   31    35     1
   31    36     1
   32    34     1
   32    35     1
   32    36     1
   33    40     1
   33    41     1
   33    42     1
   34    37     1
   34    38     1
   34    39     1
   35    37     1
   35    38     1
   35    39     1
   36    43     1
   36    44     1
   36    45     1
   37    40     1
   37    41     1
   37    42     1
   38    40     1
   38    41     1
   38    42     1
   39    46     1
   39    47     1
   40    43     1
   40    44     1
   40    45     1
   41    43     1
   41    44     1
   41    45     1
   42    48     1
   42    49     1
   43    46     1
   43    47     1
   44    46     1
   44    47     1
   45    50     1
   45    51     1
   45    52     1
   46    48     1
   46    49     1
   47    53     1
   47    54     1
   47    55     1
   48    50     1
   48    51     1
   48    52     1
   49    56     1
   49    57     1
   49    58     1
   50    53     1
   50    54     1
   50    55     1
   51    53     1
   51    54     1
   51    55     1
   52    59     1
   52    60     1
   52    61     1
   53    56     1
   53    57     1
   53    58     1
   54    56     1
   54    57     1
   54    58     1
   55    62     1
   55    63     1
   55    64     1
   56    59     1
   56    60     1
   56    61     1
   57    59     1
   57    60     1
   57    61     1
   58    65     1
   58    66     1
   58    67     1
   59    62     1
   59    63     1
   59    64     1
   60    62     1
   60    63     1
   60    64     1
   61    68     1
   61    69     1
   61    70     1
   62    65     1
   62    66     1
   62    67     1
   63    65     1
   63    66     1
   63    67     1
   64    71     1
   64    72     1
   64    73     1
   65    68     1
   65    69     1
   65    70     1
   66    68     1
   66    69     1
   66    70     1
   68    71     1
   68    72     1
   68    73     1
   69    71     1
   69    72     1
   69    73     1
   74    81     1
   74    82     1
   74    83     1
   75    78     1
   75    79     1
   75    80     1
   76    78     1
   76    79     1
   76    80     1
   77    84     1
   77    85     1
   77    86     1
   78    81     1
   78    82     1
   78    83     1
   79    81     1
   79    82     1
   79    83     1
   80    87     1
   80    88     1
   80    89     1
   81    84     1
   81    85     1
   81    86     1
   82    84     1
   82    85     1
   82    86     1
   83    90     1
   83    91     1
   83    92     1
   84    87     1
   84    88     1
   84    89     1
   85    87     1
   85    88     1
   85    89     1
   86    93     1
   86    94     1
   87    90     1
   87    91     1
   87    92     1
   88    90     1
   88    91     1
   88    92     1
   89    95     1
   89    96     1
   90    93     1
   90    94     1
   91    93     1
   91    94     1
   92    97     1
   92    98     1
   92    99     1
   93    95     1
   93    96     1
   94   100     1
   94   101     1
   95    97     1
   95    98     1
   95    99     1
   96   102     1
   96   103     1
   97   100     1
   97   101     1
   98   100     1
   98   101     1
   99   104     1
   99   105     1
   99   106     1
  100   102     1
  100   103     1
  101   107     1
  101   108     1
  102   104     1
  102   105     1
  102   106     1
  103   109     1
  103   110     1
  104   107     1
  104   108     1
  105   107     1
  105   108     1
  106   111     1
  106   112     1
  106   113     1
  107   109     1
  107   110     1
  108   114     1
  108   115     1
  108   116     1
  109   111     1
  109   112     1
  109   113     1
  111   114     1
  111   115     1
  111   116     1
  112   114     1
  112   115     1
  112   116     1
  117   124     1
  117   125     1
  117   126     1
  118   121     1
  118   122     1
  118   123     1
  119   121     1
  119   122     1
  119   123     1
  120   127     1
  120   128     1
  120   129     1
  121   124     1
  121   125     1
  121   126     1
  122   124     1
  122   125     1
  122   126     1
  123   130     1
  123   131     1
  123   132     1
  124   127     1
  124   128     1
  124   129     1
  125   127     1
  125   128     1
  125   129     1
  126   133     1
  126   134     1
  126   135     1
  127   130     1
  127   131     1
  127   132     1
  128   130     1
  128   131     1
  128   132     1
  129   136     1
  129   137     1
  129   138     1
  130   133     1
  130   134     1
  130   135     1
  131   133     1
  131   134     1
  131   135     1
  132   139     1
  132   140     1
  132   141     1
  133   136     1
  133   137     1
  133   138     1
  134   136     1
  134   137     1
  134   138     1
  135   142     1
  135   143     1
  135   144     1
  136   139     1
  136   140     1
  136   141     1
  137   139     1
  137   140     1
  137   141     1
  138   145     1
  138   146     1
  138   147     1
  139   142     1
  139   143     1
  139   144     1
  140   142     1
  140   143     1
  140   144     1
  141   148     1
  141   149     1
  141   150     1
  142   145     1
  142   146     1
  142   147     1
  143   145     1
  143   146     1
  143   147     1
  144   151     1
  144   152     1
  144   153     1
  145   148     1
  145   149     1
  145   150     1
  146   148     1
  146   149     1
  146   150     1
  147   154     1
  147   155     1
  147   156     1
  148   151     1
  148   152     1
  148   153     1
  149   151     1
  149   152     1
  149   153     1
  150   157     1
  150   158     1
  150   159     1
  151   154     1
  151   155     1
  151   156     1
  152   154     1
  152   155     1
  152   156     1
  153   160     1
  153   161     1
  153   162     1
  154   157     1
  154   158     1
  154   159     1
  155   157     1
  155   158     1
  155   159     1
  156   163     1
  156   164     1
  156   165     1
  157   160     1
  157   161     1
  157   162     1
  158   160     1
  158   161     1
  158   162     1
  159   166     1
  159   167     1
  159   168     1
  160   163     1
  160   164     1
  160   165     1
  161   163     1
  161   164     1
  161   165     1
  162   169     1
  162   170     1
  162   171     1
  163   166     1
  163   167     1
  163   168     1
  164   166     1
  164   167     1
  164   168     1
  166   169     1
  166   170     1
  166   171     1
  167   169     1
  167   170     1
  167   171     1

[ angles ] 
; ai	aj	ak	funct	th0	cth	S0	Kub
    2     1     3     5
    2     1     4     5
    2     1    10     5
    3     1     4     5
    3     1    10     5
    4     1    10     5
    1     4     6     5
    4     6     5     5
    4     6     7     5
    5     6     7     5
    6     7     8     5
    6     7     9     5
    6     7    27     5
    8     7     9     5
    8     7    27     5
    9     7    27     5
    1    10    11     5
    1    10    12     5
    1    10    18     5
   11    10    12     5
   11    10    18     5
   12    10    18     5
   10    12    13     5
   12    13    14     5
   12    13    15     5
   14    13    15     5
   13    15    16     5
   13    15    17     5
   13    15    74     5
   16    15    17     5
   16    15    74     5
   17    15    74     5
   10    18    19     5
   10    18    20     5
   10    18    21     5
   19    18    20     5
   19    18    21     5
   20    18    21     5
   18    21    22     5
   21    22    23     5
   21    22    24     5
   23    22    24     5
   22    24    25     5
   22    24    26     5
   22    24   117     5
   25    24    26     5
   25    24   117     5
   26    24   117     5
    7    27    28     5
    7    27    29     5
    7    27    30     5
   28    27    29     5
   28    27    30     5
   29    27    30     5
   27    30    31     5
   27    30    32     5
   27    30    33     5
   31    30    32     5
   31    30    33     5
   32    30    33     5
   30    33    34     5
   30    33    35     5
   30    33    36     5
   34    33    35     5
   34    33    36     5
   35    33    36     5
   33    36    37     5
   33    36    38     5
   33    36    39     5
   37    36    38     5
   37    36    39     5
   38    36    39     5
   36    39    40     5
   36    39    41     5
   36    39    42     5
   40    39    41     5
   40    39    42     5
   41    39    42     5
   39    42    43     5
   39    42    44     5
   39    42    45     5
   43    42    44     5
   43    42    45     5
   44    42    45     5
   42    45    46     5
   42    45    47     5
   46    45    47     5
   45    47    48     5
   45    47    49     5
   48    47    49     5
   47    49    50     5
   47    49    51     5
   47    49    52     5
   50    49    51     5
   50    49    52     5
   51    49    52     5
   49    52    53     5
   49    52    54     5
   49    52    55     5
   53    52    54     5
   53    52    55     5
   54    52    55     5
   52    55    56     5
   52    55    57     5
   52    55    58     5
   56    55    57     5
   56    55    58     5
   57    55    58     5
   55    58    59     5
   55    58    60     5
   55    58    61     5
   59    58    60     5
   59    58    61     5
   60    58    61     5
   58    61    62     5
   58    61    63     5
   58    61    64     5
   62    61    63     5
   62    61    64     5
   63    61    64     5
   61    64    65     5
   61    64    66     5
   61    64    67     5
   65    64    66     5
   65    64    67     5
   66    64    67     5
   64    67    68     5
   64    67    69     5
   64    67    70     5
   68    67    69     5
   68    67    70     5
   69    67    70     5
   67    70    71     5
   67    70    72     5
   67    70    73     5
   71    70    72     5
   71    70    73     5
   72    70    73     5
   15    74    75     5
   15    74    76     5
   15    74    77     5
   75    74    76     5
   75    74    77     5
   76    74    77     5
   74    77    78     5
   74    77    79     5
   74    77    80     5
   78    77    79     5
   78    77    80     5
   79    77    80     5
   77    80    81     5
   77    80    82     5
   77    80    83     5
   81    80    82     5
   81    80    83     5
   82    80    83     5
   80    83    84     5
   80    83    85     5
   80    83    86     5
   84    83    85     5
   84    83    86     5
   85    83    86     5
   83    86    87     5
   83    86    88     5
   83    86    89     5
   87    86    88     5
   87    86    89     5
   88    86    89     5
   86    89    90     5
   86    89    91     5
   86    89    92     5
   90    89    91     5
   90    89    92     5
   91    89    92     5
   89    92    93     5
   89    92    94     5
   93    92    94     5
   92    94    95     5
   92    94    96     5
   95    94    96     5
   94    96    97     5
   94    96    98     5
   94    96    99     5
   97    96    98     5
   97    96    99     5
   98    96    99     5
   96    99   100     5
   96    99   101     5
  100    99   101     5
   99   101   102     5
   99   101   103     5
  102   101   103     5
  101   103   104     5
  101   103   105     5
  101   103   106     5
  104   103   105     5
  104   103   106     5
  105   103   106     5
  103   106   107     5
  103   106   108     5
  107   106   108     5
  106   108   109     5
  106   108   110     5
  109   108   110     5
  108   110   111     5
  108   110   112     5
  108   110   113     5
  111   110   112     5
  111   110   113     5
  112   110   113     5
  110   113   114     5
  110   113   115     5
  110   113   116     5
  114   113   115     5
  114   113   116     5
  115   113   116     5
   24   117   118     5
   24   117   119     5
   24   117   120     5
  118   117   119     5
  118   117   120     5
  119   117   120     5
  117   120   121     5
  117   120   122     5
  117   120   123     5
  121   120   122     5
  121   120   123     5
  122   120   123     5
  120   123   124     5
  120   123   125     5
  120   123   126     5
  124   123   125     5
  124   123   126     5
  125   123   126     5
  123   126   127     5
  123   126   128     5
  123   126   129     5
  127   126   128     5
  127   126   129     5
  128   126   129     5
  126   129   130     5
  126   129   131     5
  126   129   132     5
  130   129   131     5
  130   129   132     5
  131   129   132     5
  129   132   133     5
  129   132   134     5
  129   132   135     5
  133   132   134     5
  133   132   135     5
  134   132   135     5
  132   135   136     5
  132   135   137     5
  132   135   138     5
  136   135   137     5
  136   135   138     5
  137   135   138     5
  135   138   139     5
  135   138   140     5
  135   138   141     5
  139   138   140     5
  139   138   141     5
  140   138   141     5
  138   141   142     5
  138   141   143     5
  138   141   144     5
  142   141   143     5
  142   141   144     5
  143   141   144     5
  141   144   145     5
  141   144   146     5
  141   144   147     5
  145   144   146     5
  145   144   147     5
  146   144   147     5
  144   147   148     5
  144   147   149     5
  144   147   150     5
  148   147   149     5
  148   147   150     5
  149   147   150     5
  147   150   151     5
  147   150   152     5
  147   150   153     5
  151   150   152     5
  151   150   153     5
  152   150   153     5
  150   153   154     5
  150   153   155     5
  150   153   156     5
  154   153   155     5
  154   153   156     5
  155   153   156     5
  153   156   157     5
  153   156   158     5
  153   156   159     5
  157   156   158     5
  157   156   159     5
  158   156   159     5
  156   159   160     5
  156   159   161     5
  156   159   162     5
  160   159   161     5
  160   159   162     5
  161   159   162     5
  159   162   163     5
  159   162   164     5
  159   162   165     5
  163   162   164     5
  163   162   165     5
  164   162   165     5
  162   165   166     5
  162   165   167     5
  162   165   168     5
  166   165   167     5
  166   165   168     5
  167   165   168     5
  165   168   169     5
  165   168   170     5
  165   168   171     5
  169   168   170     5
  169   168   171     5
  170   168   171     5

[ dihedrals ]
; ai	aj	ak	al	funct	phi0	cp	mult
    2     1     4     6     9
    3     1     4     6     9
    2     1    10    11     9
    2     1    10    12     9
    2     1    10    18     9
    3     1    10    11     9
    3     1    10    12     9
    3     1    10    18     9
    4     1    10    11     9
    4     1    10    12     9
    4     1    10    18     9
    6     4     1    10     9
    1     4     6     5     9
    1     4     6     7     9
    4     6     7     8     9
    4     6     7     9     9
    4     6     7    27     9
    5     6     7     8     9
    5     6     7     9     9
    5     6     7    27     9
    6     7    27    28     9
    6     7    27    29     9
    6     7    27    30     9
    8     7    27    28     9
    8     7    27    29     9
    8     7    27    30     9
    9     7    27    28     9
    9     7    27    29     9
    9     7    27    30     9
    1    10    12    13     9
   11    10    12    13     9
    1    10    18    19     9
    1    10    18    20     9
    1    10    18    21     9
   11    10    18    19     9
   11    10    18    20     9
   11    10    18    21     9
   12    10    18    19     9
   12    10    18    20     9
   12    10    18    21     9
   13    12    10    18     9
   10    12    13    14     9
   10    12    13    15     9
   12    13    15    16     9
   12    13    15    17     9
   12    13    15    74     9
   14    13    15    16     9
   14    13    15    17     9
   14    13    15    74     9
   13    15    74    75     9
   13    15    74    76     9
   13    15    74    77     9
   16    15    74    75     9
   16    15    74    76     9
   16    15    74    77     9
   17    15    74    75     9
   17    15    74    76     9
   17    15    74    77     9
   10    18    21    22     9
   19    18    21    22     9
   20    18    21    22     9
   18    21    22    23     9
   18    21    22    24     9
   21    22    24    25     9
   21    22    24    26     9
   21    22    24   117     9
   23    22    24    25     9
   23    22    24    26     9
   23    22    24   117     9
   22    24   117   118     9
   22    24   117   119     9
   22    24   117   120     9
   25    24   117   118     9
   25    24   117   119     9
   25    24   117   120     9
   26    24   117   118     9
   26    24   117   119     9
   26    24   117   120     9
    7    27    30    31     9
    7    27    30    32     9
    7    27    30    33     9
   28    27    30    31     9
   28    27    30    32     9
   28    27    30    33     9
   29    27    30    31     9
   29    27    30    32     9
   29    27    30    33     9
   27    30    33    34     9
   27    30    33    35     9
   27    30    33    36     9
   31    30    33    34     9
   31    30    33    35     9
   31    30    33    36     9
   32    30    33    34     9
   32    30    33    35     9
   32    30    33    36     9
   30    33    36    37     9
   30    33    36    38     9
   30    33    36    39     9
   34    33    36    37     9
   34    33    36    38     9
   34    33    36    39     9
   35    33    36    37     9
   35    33    36    38     9
   35    33    36    39     9
   33    36    39    40     9
   33    36    39    41     9
   33    36    39    42     9
   37    36    39    40     9
   37    36    39    41     9
   37    36    39    42     9
   38    36    39    40     9
   38    36    39    41     9
   38    36    39    42     9
   36    39    42    43     9
   36    39    42    44     9
   36    39    42    45     9
   40    39    42    43     9
   40    39    42    44     9
   40    39    42    45     9
   41    39    42    43     9
   41    39    42    44     9
   41    39    42    45     9
   39    42    45    46     9
   39    42    45    47     9
   43    42    45    46     9
   43    42    45    47     9
   44    42    45    46     9
   44    42    45    47     9
   42    45    47    48     9
   42    45    47    49     9
   46    45    47    48     9
   46    45    47    49     9
   45    47    49    50     9
   45    47    49    51     9
   45    47    49    52     9
   48    47    49    50     9
   48    47    49    51     9
   48    47    49    52     9
   47    49    52    53     9
   47    49    52    54     9
   47    49    52    55     9
   50    49    52    53     9
   50    49    52    54     9
   50    49    52    55     9
   51    49    52    53     9
   51    49    52    54     9
   51    49    52    55     9
   49    52    55    56     9
   49    52    55    57     9
   49    52    55    58     9
   53    52    55    56     9
   53    52    55    57     9
   53    52    55    58     9
   54    52    55    56     9
   54    52    55    57     9
   54    52    55    58     9
   52    55    58    59     9
   52    55    58    60     9
   52    55    58    61     9
   56    55    58    59     9
   56    55    58    60     9
   56    55    58    61     9
   57    55    58    59     9
   57    55    58    60     9
   57    55    58    61     9
   55    58    61    62     9
   55    58    61    63     9
   55    58    61    64     9
   59    58    61    62     9
   59    58    61    63     9
   59    58    61    64     9
   60    58    61    62     9
   60    58    61    63     9
   60    58    61    64     9
   58    61    64    65     9
   58    61    64    66     9
   58    61    64    67     9
   62    61    64    65     9
   62    61    64    66     9
   62    61    64    67     9
   63    61    64    65     9
   63    61    64    66     9
   63    61    64    67     9
   61    64    67    68     9
   61    64    67    69     9
   61    64    67    70     9
   65    64    67    68     9
   65    64    67    69     9
   65    64    67    70     9
   66    64    67    68     9
   66    64    67    69     9
   66    64    67    70     9
   64    67    70    71     9
   64    67    70    72     9
   64    67    70    73     9
   68    67    70    71     9
   68    67    70    72     9
   68    67    70    73     9
   69    67    70    71     9
   69    67    70    72     9
   69    67    70    73     9
   15    74    77    78     9
   15    74    77    79     9
   15    74    77    80     9
   75    74    77    78     9
   75    74    77    79     9
   75    74    77    80     9
   76    74    77    78     9
   76    74    77    79     9
   76    74    77    80     9
   74    77    80    81     9
   74    77    80    82     9
   74    77    80    83     9
   78    77    80    81     9
   78    77    80    82     9
   78    77    80    83     9
   79    77    80    81     9
   79    77    80    82     9
   79    77    80    83     9
   77    80    83    84     9
   77    80    83    85     9
   77    80    83    86     9
   81    80    83    84     9
   81    80    83    85     9
   81    80    83    86     9
   82    80    83    84     9
   82    80    83    85     9
   82    80    83    86     9
   80    83    86    87     9
   80    83    86    88     9
   80    83    86    89     9
   84    83    86    87     9
   84    83    86    88     9
   84    83    86    89     9
   85    83    86    87     9
   85    83    86    88     9
   85    83    86    89     9
   83    86    89    90     9
   83    86    89    91     9
   83    86    89    92     9
   87    86    89    90     9
   87    86    89    91     9
   87    86    89    92     9
   88    86    89    90     9
   88    86    89    91     9
   88    86    89    92     9
   86    89    92    93     9
   86    89    92    94     9
   90    89    92    93     9
   90    89    92    94     9
   91    89    92    93     9
   91    89    92    94     9
   89    92    94    95     9
   89    92    94    96     9
   93    92    94    95     9
   93    92    94    96     9
   92    94    96    97     9
   92    94    96    98     9
   92    94    96    99     9
   95    94    96    97     9
   95    94    96    98     9
   95    94    96    99     9
   94    96    99   100     9
   94    96    99   101     9
   97    96    99   100     9
   97    96    99   101     9
   98    96    99   100     9
   98    96    99   101     9
   96    99   101   102     9
   96    99   101   103     9
  100    99   101   102     9
  100    99   101   103     9
   99   101   103   104     9
   99   101   103   105     9
   99   101   103   106     9
  102   101   103   104     9
  102   101   103   105     9
  102   101   103   106     9
  101   103   106   107     9
  101   103   106   108     9
  104   103   106   107     9
  104   103   106   108     9
  105   103   106   107     9
  105   103   106   108     9
  103   106   108   109     9
  103   106   108   110     9
  107   106   108   109     9
  107   106   108   110     9
  106   108   110   111     9
  106   108   110   112     9
  106   108   110   113     9
  109   108   110   111     9
  109   108   110   112     9
  109   108   110   113     9
  108   110   113   114     9
  108   110   113   115     9
  108   110   113   116     9
  111   110   113   114     9
  111   110   113   115     9
  111   110   113   116     9
  112   110   113   114     9
  112   110   113   115     9
  112   110   113   116     9
   24   117   120   121     9
   24   117   120   122     9
   24   117   120   123     9
  118   117   120   121     9
  118   117   120   122     9
  118   117   120   123     9
  119   117   120   121     9
  119   117   120   122     9
  119   117   120   123     9
  117   120   123   124     9
  117   120   123   125     9
  117   120   123   126     9
  121   120   123   124     9
  121   120   123   125     9
  121   120   123   126     9
  122   120   123   124     9
  122   120   123   125     9
  122   120   123   126     9
  120   123   126   127     9
  120   123   126   128     9
  120   123   126   129     9
  124   123   126   127     9
  124   123   126   128     9
  124   123   126   129     9
  125   123   126   127     9
  125   123   126   128     9
  125   123   126   129     9
  123   126   129   130     9
  123   126   129   131     9
  123   126   129   132     9
  127   126   129   130     9
  127   126   129   131     9
  127   126   129   132     9
  128   126   129   130     9
  128   126   129   131     9
  128   126   129   132     9
  126   129   132   133     9
  126   129   132   134     9
  126   129   132   135     9
  130   129   132   133     9
  130   129   132   134     9
  130   129   132   135     9
  131   129   132   133     9
  131   129   132   134     9
  131   129   132   135     9
  129   132   135   136     9
  129   132   135   137     9
  129   132   135   138     9
  133   132   135   136     9
  133   132   135   137     9
  133   132   135   138     9
  134   132   135   136     9
  134   132   135   137     9
  134   132   135   138     9
  132   135   138   139     9
  132   135   138   140     9
  132   135   138   141     9
  136   135   138   139     9
  136   135   138   140     9
  136   135   138   141     9
  137   135   138   139     9
  137   135   138   140     9
  137   135   138   141     9
  135   138   141   142     9
  135   138   141   143     9
  135   138   141   144     9
  139   138   141   142     9
  139   138   141   143     9
  139   138   141   144     9
  140   138   141   142     9
  140   138   141   143     9
  140   138   141   144     9
  138   141   144   145     9
  138   141   144   146     9
  138   141   144   147     9
  142   141   144   145     9
  142   141   144   146     9
  142   141   144   147     9
  143   141   144   145     9
  143   141   144   146     9
  143   141   144   147     9
  141   144   147   148     9
  141   144   147   149     9
  141   144   147   150     9
  145   144   147   148     9
  145   144   147   149     9
  145   144   147   150     9
  146   144   147   148     9
  146   144   147   149     9
  146   144   147   150     9
  144   147   150   151     9
  144   147   150   152     9
  144   147   150   153     9
  148   147   150   151     9
  148   147   150   152     9
  148   147   150   153     9
  149   147   150   151     9
  149   147   150   152     9
  149   147   150   153     9
  147   150   153   154     9
  147   150   153   155     9
  147   150   153   156     9
  151   150   153   154     9
  151   150   153   155     9
  151   150   153   156     9
  152   150   153   154     9
  152   150   153   155     9
  152   150   153   156     9
  150   153   156   157     9
  150   153   156   158     9
  150   153   156   159     9
  154   153   156   157     9
  154   153   156   158     9
  154   153   156   159     9
  155   153   156   157     9
  155   153   156   158     9
  155   153   156   159     9
  153   156   159   160     9
  153   156   159   161     9
  153   156   159   162     9
  157   156   159   160     9
  157   156   159   161     9
  157   156   159   162     9
  158   156   159   160     9
  158   156   159   161     9
  158   156   159   162     9
  156   159   162   163     9
  156   159   162   164     9
  156   159   162   165     9
  160   159   162   163     9
  160   159   162   164     9
  160   159   162   165     9
  161   159   162   163     9
  161   159   162   164     9
  161   159   162   165     9
  159   162   165   166     9
  159   162   165   167     9
  159   162   165   168     9
  163   162   165   166     9
  163   162   165   167     9
  163   162   165   168     9
  164   162   165   166     9
  164   162   165   167     9
  164   162   165   168     9
  162   165   168   169     9
  162   165   168   170     9
  162   165   168   171     9
  166   165   168   169     9
  166   165   168   170     9
  166   165   168   171     9
  167   165   168   169     9
  167   165   168   170     9
  167   165   168   171     9

[ dihedrals ]
; ai	aj	ak	al	funct	q0	cq
    6     4     7     5     2
   13    12    15    14     2
   22    21    24    23     2

#ifdef POSRES
[ position_restraints ]
   10     1     0.0             0.0            POSRES_FC_LIPID
#endif

#ifdef DIHRES
[ dihedral_restraints ]
    1    18    10    12     1   -120.0      2.5       DIHRES_FC
   42    45    47    49     1      0.0      0.0       DIHRES_FC
   89    92    94    96     1      0.0      0.0       DIHRES_FC
   96    99   101   103     1      0.0      0.0       DIHRES_FC
  103   106   108   110     1      0.0      0.0       DIHRES_FC
#endif
