;;
;; Generated by CHARMM-GUI FF-Converter
;;
;; Correspondance:
;; jul316@lehigh.edu or wonpil@lehigh.edu
;;
;; GROMACS topology file for PLC22
;;


[ moleculetype ]
; name	nrexcl
PLC22	     3

[ atoms ]
; nr	type	resnr	residu	atom	cgnr	charge	mass
     1        NTL      1    PLC22      N      1    -0.600000    14.0070   ; qtot -0.600
     2       CTL2      1    PLC22    C12      2    -0.100000    12.0110   ; qtot -0.700
     3         HL      1    PLC22   H12A      3     0.250000     1.0080   ; qtot -0.450
     4         HL      1    PLC22   H12B      4     0.250000     1.0080   ; qtot -0.200
     5       CTL5      1    PLC22    C13      5    -0.350000    12.0110   ; qtot -0.550
     6         HL      1    PLC22   H13A      6     0.250000     1.0080   ; qtot -0.300
     7         HL      1    PLC22   H13B      7     0.250000     1.0080   ; qtot -0.050
     8         HL      1    PLC22   H13C      8     0.250000     1.0080   ; qtot  0.200
     9       CTL5      1    PLC22    C14      9    -0.350000    12.0110   ; qtot -0.150
    10         HL      1    PLC22   H14A     10     0.250000     1.0080   ; qtot  0.100
    11         HL      1    PLC22   H14B     11     0.250000     1.0080   ; qtot  0.350
    12         HL      1    PLC22   H14C     12     0.250000     1.0080   ; qtot  0.600
    13       CTL5      1    PLC22    C15     13    -0.350000    12.0110   ; qtot  0.250
    14         HL      1    PLC22   H15A     14     0.250000     1.0080   ; qtot  0.500
    15         HL      1    PLC22   H15B     15     0.250000     1.0080   ; qtot  0.750
    16         HL      1    PLC22   H15C     16     0.250000     1.0080   ; qtot  1.000
    17       CTL2      1    PLC22    C11     17    -0.080000    12.0110   ; qtot  0.920
    18       HAL2      1    PLC22   H11A     18     0.090000     1.0080   ; qtot  1.010
    19       HAL2      1    PLC22   H11B     19     0.090000     1.0080   ; qtot  1.100
    20         PL      1    PLC22      P     20     1.500000    30.9740   ; qtot  2.600
    21        O2L      1    PLC22    O13     21    -0.780000    15.9994   ; qtot  1.820
    22        O2L      1    PLC22    O14     22    -0.780000    15.9994   ; qtot  1.040
    23       OSLP      1    PLC22    O12     23    -0.570000    15.9994   ; qtot  0.470
    24       OSLP      1    PLC22    O11     24    -0.570000    15.9994   ; qtot -0.100
    25       CTL2      1    PLC22     C1     25    -0.080000    12.0110   ; qtot -0.180
    26       HAL2      1    PLC22     HA     26     0.090000     1.0080   ; qtot -0.090
    27       HAL2      1    PLC22     HB     27     0.090000     1.0080   ; qtot  0.000
    28       CTL1      1    PLC22     C2     28     0.170000    12.0110   ; qtot  0.170
    29       HAL1      1    PLC22     HS     29     0.090000     1.0080   ; qtot  0.260
    30        OSL      1    PLC22    O21     30    -0.490000    15.9994   ; qtot -0.230
    31         CL      1    PLC22    C21     31     0.900000    12.0110   ; qtot  0.670
    32        OBL      1    PLC22    O22     32    -0.630000    15.9994   ; qtot  0.040
    33       CTL2      1    PLC22    C22     33    -0.220000    12.0110   ; qtot -0.180
    34       HAL2      1    PLC22    H2R     34     0.090000     1.0080   ; qtot -0.090
    35       HAL2      1    PLC22    H2S     35     0.090000     1.0080   ; qtot  0.000
    36       CTL2      1    PLC22     C3     36     0.080000    12.0110   ; qtot  0.080
    37       HAL2      1    PLC22     HX     37     0.020000     1.0080   ; qtot  0.100
    38       HAL2      1    PLC22     HY     38     0.020000     1.0080   ; qtot  0.120
    39      OG301      1    PLC22    O31     39    -0.560000    15.9994   ; qtot -0.440
    40       CEL1      1    PLC22    C31     40     0.420000    12.0110   ; qtot -0.020
    41       HEL1      1    PLC22    H1X     41     0.020000     1.0080   ; qtot  0.000
    42       CEL1      1    PLC22    C32     42    -0.150000    12.0110   ; qtot -0.150
    43       HEL1      1    PLC22    H2X     43     0.150000     1.0080   ; qtot  0.000
    44       CTL2      1    PLC22    C23     44    -0.180000    12.0110   ; qtot -0.180
    45       HAL2      1    PLC22    H3R     45     0.090000     1.0080   ; qtot -0.090
    46       HAL2      1    PLC22    H3S     46     0.090000     1.0080   ; qtot  0.000
    47       CEL1      1    PLC22    C24     47    -0.150000    12.0110   ; qtot -0.150
    48       HEL1      1    PLC22    H4R     48     0.150000     1.0080   ; qtot  0.000
    49       CEL1      1    PLC22    C25     49    -0.150000    12.0110   ; qtot -0.150
    50       HEL1      1    PLC22    H5R     50     0.150000     1.0080   ; qtot  0.000
    51       CTL2      1    PLC22    C26     51    -0.180000    12.0110   ; qtot -0.180
    52       HAL2      1    PLC22    H6R     52     0.090000     1.0080   ; qtot -0.090
    53       HAL2      1    PLC22    H6S     53     0.090000     1.0080   ; qtot  0.000
    54       CEL1      1    PLC22    C27     54    -0.150000    12.0110   ; qtot -0.150
    55       HEL1      1    PLC22    H7R     55     0.150000     1.0080   ; qtot  0.000
    56       CEL1      1    PLC22    C28     56    -0.150000    12.0110   ; qtot -0.150
    57       HEL1      1    PLC22    H8R     57     0.150000     1.0080   ; qtot  0.000
    58       CTL2      1    PLC22    C29     58    -0.180000    12.0110   ; qtot -0.180
    59       HAL2      1    PLC22    H9R     59     0.090000     1.0080   ; qtot -0.090
    60       HAL2      1    PLC22    H9S     60     0.090000     1.0080   ; qtot  0.000
    61       CEL1      1    PLC22   C210     61    -0.150000    12.0110   ; qtot -0.150
    62       HEL1      1    PLC22   H10R     62     0.150000     1.0080   ; qtot  0.000
    63       CEL1      1    PLC22   C211     63    -0.150000    12.0110   ; qtot -0.150
    64       HEL1      1    PLC22   H11R     64     0.150000     1.0080   ; qtot  0.000
    65       CTL2      1    PLC22   C212     65    -0.180000    12.0110   ; qtot -0.180
    66       HAL2      1    PLC22   H12R     66     0.090000     1.0080   ; qtot -0.090
    67       HAL2      1    PLC22   H12S     67     0.090000     1.0080   ; qtot  0.000
    68       CEL1      1    PLC22   C213     68    -0.150000    12.0110   ; qtot -0.150
    69       HEL1      1    PLC22   H13R     69     0.150000     1.0080   ; qtot  0.000
    70       CEL1      1    PLC22   C214     70    -0.150000    12.0110   ; qtot -0.150
    71       HEL1      1    PLC22   H14R     71     0.150000     1.0080   ; qtot  0.000
    72       CTL2      1    PLC22   C215     72    -0.180000    12.0110   ; qtot -0.180
    73       HAL2      1    PLC22   H15R     73     0.090000     1.0080   ; qtot -0.090
    74       HAL2      1    PLC22   H15S     74     0.090000     1.0080   ; qtot  0.000
    75       CEL1      1    PLC22   C216     75    -0.150000    12.0110   ; qtot -0.150
    76       HEL1      1    PLC22   H16R     76     0.150000     1.0080   ; qtot  0.000
    77       CEL1      1    PLC22   C217     77    -0.150000    12.0110   ; qtot -0.150
    78       HEL1      1    PLC22   H17R     78     0.150000     1.0080   ; qtot  0.000
    79       CTL2      1    PLC22   C218     79    -0.180000    12.0110   ; qtot -0.180
    80       HAL2      1    PLC22   H18R     80     0.090000     1.0080   ; qtot -0.090
    81       HAL2      1    PLC22   H18S     81     0.090000     1.0080   ; qtot  0.000
    82       CEL1      1    PLC22   C219     82    -0.150000    12.0110   ; qtot -0.150
    83       HEL1      1    PLC22   H19R     83     0.150000     1.0080   ; qtot  0.000
    84       CEL1      1    PLC22   C220     84    -0.150000    12.0110   ; qtot -0.150
    85       HEL1      1    PLC22   H20R     85     0.150000     1.0080   ; qtot  0.000
    86       CTL2      1    PLC22   C221     86    -0.180000    12.0110   ; qtot -0.180
    87       HAL2      1    PLC22   H21R     87     0.090000     1.0080   ; qtot -0.090
    88       HAL2      1    PLC22   H21S     88     0.090000     1.0080   ; qtot  0.000
    89       CTL3      1    PLC22   C222     89    -0.270000    12.0110   ; qtot -0.270
    90       HAL3      1    PLC22   H22R     90     0.090000     1.0080   ; qtot -0.180
    91       HAL3      1    PLC22   H22S     91     0.090000     1.0080   ; qtot -0.090
    92       HAL3      1    PLC22   H22T     92     0.090000     1.0080   ; qtot  0.000
    93       CTL2      1    PLC22    C33     93    -0.180000    12.0110   ; qtot -0.180
    94       HAL2      1    PLC22    H3X     94     0.090000     1.0080   ; qtot -0.090
    95       HAL2      1    PLC22    H3Y     95     0.090000     1.0080   ; qtot  0.000
    96       CTL2      1    PLC22    C34     96    -0.180000    12.0110   ; qtot -0.180
    97       HAL2      1    PLC22    H4X     97     0.090000     1.0080   ; qtot -0.090
    98       HAL2      1    PLC22    H4Y     98     0.090000     1.0080   ; qtot  0.000
    99       CTL2      1    PLC22    C35     99    -0.180000    12.0110   ; qtot -0.180
   100       HAL2      1    PLC22    H5X    100     0.090000     1.0080   ; qtot -0.090
   101       HAL2      1    PLC22    H5Y    101     0.090000     1.0080   ; qtot  0.000
   102       CTL2      1    PLC22    C36    102    -0.180000    12.0110   ; qtot -0.180
   103       HAL2      1    PLC22    H6X    103     0.090000     1.0080   ; qtot -0.090
   104       HAL2      1    PLC22    H6Y    104     0.090000     1.0080   ; qtot  0.000
   105       CTL2      1    PLC22    C37    105    -0.180000    12.0110   ; qtot -0.180
   106       HAL2      1    PLC22    H7X    106     0.090000     1.0080   ; qtot -0.090
   107       HAL2      1    PLC22    H7Y    107     0.090000     1.0080   ; qtot  0.000
   108       CTL2      1    PLC22    C38    108    -0.180000    12.0110   ; qtot -0.180
   109       HAL2      1    PLC22    H8X    109     0.090000     1.0080   ; qtot -0.090
   110       HAL2      1    PLC22    H8Y    110     0.090000     1.0080   ; qtot  0.000
   111       CTL2      1    PLC22    C39    111    -0.180000    12.0110   ; qtot -0.180
   112       HAL2      1    PLC22    H9X    112     0.090000     1.0080   ; qtot -0.090
   113       HAL2      1    PLC22    H9Y    113     0.090000     1.0080   ; qtot  0.000
   114       CTL2      1    PLC22   C310    114    -0.180000    12.0110   ; qtot -0.180
   115       HAL2      1    PLC22   H10X    115     0.090000     1.0080   ; qtot -0.090
   116       HAL2      1    PLC22   H10Y    116     0.090000     1.0080   ; qtot  0.000
   117       CTL2      1    PLC22   C311    117    -0.180000    12.0110   ; qtot -0.180
   118       HAL2      1    PLC22   H11X    118     0.090000     1.0080   ; qtot -0.090
   119       HAL2      1    PLC22   H11Y    119     0.090000     1.0080   ; qtot  0.000
   120       CTL2      1    PLC22   C312    120    -0.180000    12.0110   ; qtot -0.180
   121       HAL2      1    PLC22   H12X    121     0.090000     1.0080   ; qtot -0.090
   122       HAL2      1    PLC22   H12Y    122     0.090000     1.0080   ; qtot  0.000
   123       CTL2      1    PLC22   C313    123    -0.180000    12.0110   ; qtot -0.180
   124       HAL2      1    PLC22   H13X    124     0.090000     1.0080   ; qtot -0.090
   125       HAL2      1    PLC22   H13Y    125     0.090000     1.0080   ; qtot  0.000
   126       CTL2      1    PLC22   C314    126    -0.180000    12.0110   ; qtot -0.180
   127       HAL2      1    PLC22   H14X    127     0.090000     1.0080   ; qtot -0.090
   128       HAL2      1    PLC22   H14Y    128     0.090000     1.0080   ; qtot  0.000
   129       CTL2      1    PLC22   C315    129    -0.180000    12.0110   ; qtot -0.180
   130       HAL2      1    PLC22   H15X    130     0.090000     1.0080   ; qtot -0.090
   131       HAL2      1    PLC22   H15Y    131     0.090000     1.0080   ; qtot  0.000
   132       CTL2      1    PLC22   C316    132    -0.180000    12.0110   ; qtot -0.180
   133       HAL2      1    PLC22   H16X    133     0.090000     1.0080   ; qtot -0.090
   134       HAL2      1    PLC22   H16Y    134     0.090000     1.0080   ; qtot  0.000
   135       CTL2      1    PLC22   C317    135    -0.180000    12.0110   ; qtot -0.180
   136       HAL2      1    PLC22   H17X    136     0.090000     1.0080   ; qtot -0.090
   137       HAL2      1    PLC22   H17Y    137     0.090000     1.0080   ; qtot  0.000
   138       CTL3      1    PLC22   C318    138    -0.270000    12.0110   ; qtot -0.270
   139       HAL3      1    PLC22   H18X    139     0.090000     1.0080   ; qtot -0.180
   140       HAL3      1    PLC22   H18Y    140     0.090000     1.0080   ; qtot -0.090
   141       HAL3      1    PLC22   H18Z    141     0.090000     1.0080   ; qtot  0.000

[ bonds ]
; ai	aj	funct	b0	Kb
    1     2     1
    1     5     1
    1     9     1
    1    13     1
    2     3     1
    2     4     1
    2    17     1
    5     6     1
    5     7     1
    5     8     1
    9    10     1
    9    11     1
    9    12     1
   13    14     1
   13    15     1
   13    16     1
   17    18     1
   17    19     1
   17    23     1
   20    21     1
   20    22     1
   23    20     1
   20    24     1
   24    25     1
   25    26     1
   25    27     1
   25    28     1
   28    29     1
   28    30     1
   28    36     1
   30    31     1
   31    32     1
   31    33     1
   33    34     1
   33    35     1
   33    44     1
   36    37     1
   36    38     1
   36    39     1
   39    40     1
   40    41     1
   40    42     1
   42    43     1
   42    93     1
   44    45     1
   44    46     1
   44    47     1
   47    48     1
   47    49     1
   49    50     1
   49    51     1
   51    52     1
   51    53     1
   51    54     1
   54    55     1
   54    56     1
   56    57     1
   56    58     1
   58    59     1
   58    60     1
   58    61     1
   61    62     1
   61    63     1
   63    64     1
   63    65     1
   65    66     1
   65    67     1
   65    68     1
   68    69     1
   68    70     1
   70    71     1
   70    72     1
   72    73     1
   72    74     1
   72    75     1
   75    76     1
   75    77     1
   77    78     1
   77    79     1
   79    80     1
   79    81     1
   79    82     1
   82    83     1
   82    84     1
   84    85     1
   84    86     1
   86    87     1
   86    88     1
   86    89     1
   89    90     1
   89    91     1
   89    92     1
   93    94     1
   93    95     1
   93    96     1
   96    97     1
   96    98     1
   96    99     1
   99   100     1
   99   101     1
   99   102     1
  102   103     1
  102   104     1
  102   105     1
  105   106     1
  105   107     1
  105   108     1
  108   109     1
  108   110     1
  108   111     1
  111   112     1
  111   113     1
  111   114     1
  114   115     1
  114   116     1
  114   117     1
  117   118     1
  117   119     1
  117   120     1
  120   121     1
  120   122     1
  120   123     1
  123   124     1
  123   125     1
  123   126     1
  126   127     1
  126   128     1
  126   129     1
  129   130     1
  129   131     1
  129   132     1
  132   133     1
  132   134     1
  132   135     1
  135   136     1
  135   137     1
  135   138     1
  138   139     1
  138   140     1
  138   141     1

[ pairs ]
; ai	aj	funct	c6	c12 or
; ai	aj	funct	fudgeQQ	q1	q2	c6	c12
    1    18     1
    1    19     1
    1    23     1
    2     6     1
    2     7     1
    2     8     1
    2    10     1
    2    11     1
    2    12     1
    2    14     1
    2    15     1
    2    16     1
    2    20     1
    3     5     1
    3     9     1
    3    13     1
    3    18     1
    3    19     1
    3    23     1
    4     5     1
    4     9     1
    4    13     1
    4    18     1
    4    19     1
    4    23     1
    5    10     1
    5    11     1
    5    12     1
    5    14     1
    5    15     1
    5    16     1
    5    17     1
    6     9     1
    6    13     1
    7     9     1
    7    13     1
    8     9     1
    8    13     1
    9    14     1
    9    15     1
    9    16     1
    9    17     1
   10    13     1
   11    13     1
   12    13     1
   13    17     1
   17    21     1
   17    22     1
   17    24     1
   18    20     1
   19    20     1
   20    26     1
   20    27     1
   20    28     1
   21    25     1
   22    25     1
   23    25     1
   24    29     1
   24    30     1
   24    36     1
   25    31     1
   25    37     1
   25    38     1
   25    39     1
   26    29     1
   26    30     1
   26    36     1
   27    29     1
   27    30     1
   27    36     1
   28    32     1
   28    33     1
   28    40     1
   29    31     1
   29    37     1
   29    38     1
   29    39     1
   30    34     1
   30    35     1
   30    37     1
   30    38     1
   30    39     1
   30    44     1
   31    36     1
   31    45     1
   31    46     1
   31    47     1
   32    34     1
   32    35     1
   32    44     1
   33    48     1
   33    49     1
   34    45     1
   34    46     1
   34    47     1
   35    45     1
   35    46     1
   35    47     1
   36    41     1
   36    42     1
   37    40     1
   38    40     1
   39    43     1
   39    93     1
   40    94     1
   40    95     1
   40    96     1
   41    43     1
   41    93     1
   42    97     1
   42    98     1
   42    99     1
   43    94     1
   43    95     1
   43    96     1
   44    50     1
   44    51     1
   45    48     1
   45    49     1
   46    48     1
   46    49     1
   47    52     1
   47    53     1
   47    54     1
   48    50     1
   48    51     1
   49    55     1
   49    56     1
   50    52     1
   50    53     1
   50    54     1
   51    57     1
   51    58     1
   52    55     1
   52    56     1
   53    55     1
   53    56     1
   54    59     1
   54    60     1
   54    61     1
   55    57     1
   55    58     1
   56    62     1
   56    63     1
   57    59     1
   57    60     1
   57    61     1
   58    64     1
   58    65     1
   59    62     1
   59    63     1
   60    62     1
   60    63     1
   61    66     1
   61    67     1
   61    68     1
   62    64     1
   62    65     1
   63    69     1
   63    70     1
   64    66     1
   64    67     1
   64    68     1
   65    71     1
   65    72     1
   66    69     1
   66    70     1
   67    69     1
   67    70     1
   68    73     1
   68    74     1
   68    75     1
   69    71     1
   69    72     1
   70    76     1
   70    77     1
   71    73     1
   71    74     1
   71    75     1
   72    78     1
   72    79     1
   73    76     1
   73    77     1
   74    76     1
   74    77     1
   75    80     1
   75    81     1
   75    82     1
   76    78     1
   76    79     1
   77    83     1
   77    84     1
   78    80     1
   78    81     1
   78    82     1
   79    85     1
   79    86     1
   80    83     1
   80    84     1
   81    83     1
   81    84     1
   82    87     1
   82    88     1
   82    89     1
   83    85     1
   83    86     1
   84    90     1
   84    91     1
   84    92     1
   85    87     1
   85    88     1
   85    89     1
   87    90     1
   87    91     1
   87    92     1
   88    90     1
   88    91     1
   88    92     1
   93   100     1
   93   101     1
   93   102     1
   94    97     1
   94    98     1
   94    99     1
   95    97     1
   95    98     1
   95    99     1
   96   103     1
   96   104     1
   96   105     1
   97   100     1
   97   101     1
   97   102     1
   98   100     1
   98   101     1
   98   102     1
   99   106     1
   99   107     1
   99   108     1
  100   103     1
  100   104     1
  100   105     1
  101   103     1
  101   104     1
  101   105     1
  102   109     1
  102   110     1
  102   111     1
  103   106     1
  103   107     1
  103   108     1
  104   106     1
  104   107     1
  104   108     1
  105   112     1
  105   113     1
  105   114     1
  106   109     1
  106   110     1
  106   111     1
  107   109     1
  107   110     1
  107   111     1
  108   115     1
  108   116     1
  108   117     1
  109   112     1
  109   113     1
  109   114     1
  110   112     1
  110   113     1
  110   114     1
  111   118     1
  111   119     1
  111   120     1
  112   115     1
  112   116     1
  112   117     1
  113   115     1
  113   116     1
  113   117     1
  114   121     1
  114   122     1
  114   123     1
  115   118     1
  115   119     1
  115   120     1
  116   118     1
  116   119     1
  116   120     1
  117   124     1
  117   125     1
  117   126     1
  118   121     1
  118   122     1
  118   123     1
  119   121     1
  119   122     1
  119   123     1
  120   127     1
  120   128     1
  120   129     1
  121   124     1
  121   125     1
  121   126     1
  122   124     1
  122   125     1
  122   126     1
  123   130     1
  123   131     1
  123   132     1
  124   127     1
  124   128     1
  124   129     1
  125   127     1
  125   128     1
  125   129     1
  126   133     1
  126   134     1
  126   135     1
  127   130     1
  127   131     1
  127   132     1
  128   130     1
  128   131     1
  128   132     1
  129   136     1
  129   137     1
  129   138     1
  130   133     1
  130   134     1
  130   135     1
  131   133     1
  131   134     1
  131   135     1
  132   139     1
  132   140     1
  132   141     1
  133   136     1
  133   137     1
  133   138     1
  134   136     1
  134   137     1
  134   138     1
  136   139     1
  136   140     1
  136   141     1
  137   139     1
  137   140     1
  137   141     1

[ angles ] 
; ai	aj	ak	funct	th0	cth	S0	Kub
    2     1     5     5
    2     1     9     5
    2     1    13     5
    5     1     9     5
    5     1    13     5
    9     1    13     5
    1     2     3     5
    1     2     4     5
    1     2    17     5
    3     2     4     5
    3     2    17     5
    4     2    17     5
    1     5     6     5
    1     5     7     5
    1     5     8     5
    6     5     7     5
    6     5     8     5
    7     5     8     5
    1     9    10     5
    1     9    11     5
    1     9    12     5
   10     9    11     5
   10     9    12     5
   11     9    12     5
    1    13    14     5
    1    13    15     5
    1    13    16     5
   14    13    15     5
   14    13    16     5
   15    13    16     5
    2    17    18     5
    2    17    19     5
    2    17    23     5
   18    17    19     5
   18    17    23     5
   19    17    23     5
   21    20    22     5
   21    20    23     5
   21    20    24     5
   22    20    23     5
   22    20    24     5
   23    20    24     5
   17    23    20     5
   20    24    25     5
   24    25    26     5
   24    25    27     5
   24    25    28     5
   26    25    27     5
   26    25    28     5
   27    25    28     5
   25    28    29     5
   25    28    30     5
   25    28    36     5
   29    28    30     5
   29    28    36     5
   30    28    36     5
   28    30    31     5
   30    31    32     5
   30    31    33     5
   32    31    33     5
   31    33    34     5
   31    33    35     5
   31    33    44     5
   34    33    35     5
   34    33    44     5
   35    33    44     5
   28    36    37     5
   28    36    38     5
   28    36    39     5
   37    36    38     5
   37    36    39     5
   38    36    39     5
   36    39    40     5
   39    40    41     5
   39    40    42     5
   41    40    42     5
   40    42    43     5
   40    42    93     5
   43    42    93     5
   33    44    45     5
   33    44    46     5
   33    44    47     5
   45    44    46     5
   45    44    47     5
   46    44    47     5
   44    47    48     5
   44    47    49     5
   48    47    49     5
   47    49    50     5
   47    49    51     5
   50    49    51     5
   49    51    52     5
   49    51    53     5
   49    51    54     5
   52    51    53     5
   52    51    54     5
   53    51    54     5
   51    54    55     5
   51    54    56     5
   55    54    56     5
   54    56    57     5
   54    56    58     5
   57    56    58     5
   56    58    59     5
   56    58    60     5
   56    58    61     5
   59    58    60     5
   59    58    61     5
   60    58    61     5
   58    61    62     5
   58    61    63     5
   62    61    63     5
   61    63    64     5
   61    63    65     5
   64    63    65     5
   63    65    66     5
   63    65    67     5
   63    65    68     5
   66    65    67     5
   66    65    68     5
   67    65    68     5
   65    68    69     5
   65    68    70     5
   69    68    70     5
   68    70    71     5
   68    70    72     5
   71    70    72     5
   70    72    73     5
   70    72    74     5
   70    72    75     5
   73    72    74     5
   73    72    75     5
   74    72    75     5
   72    75    76     5
   72    75    77     5
   76    75    77     5
   75    77    78     5
   75    77    79     5
   78    77    79     5
   77    79    80     5
   77    79    81     5
   77    79    82     5
   80    79    81     5
   80    79    82     5
   81    79    82     5
   79    82    83     5
   79    82    84     5
   83    82    84     5
   82    84    85     5
   82    84    86     5
   85    84    86     5
   84    86    87     5
   84    86    88     5
   84    86    89     5
   87    86    88     5
   87    86    89     5
   88    86    89     5
   86    89    90     5
   86    89    91     5
   86    89    92     5
   90    89    91     5
   90    89    92     5
   91    89    92     5
   42    93    94     5
   42    93    95     5
   42    93    96     5
   94    93    95     5
   94    93    96     5
   95    93    96     5
   93    96    97     5
   93    96    98     5
   93    96    99     5
   97    96    98     5
   97    96    99     5
   98    96    99     5
   96    99   100     5
   96    99   101     5
   96    99   102     5
  100    99   101     5
  100    99   102     5
  101    99   102     5
   99   102   103     5
   99   102   104     5
   99   102   105     5
  103   102   104     5
  103   102   105     5
  104   102   105     5
  102   105   106     5
  102   105   107     5
  102   105   108     5
  106   105   107     5
  106   105   108     5
  107   105   108     5
  105   108   109     5
  105   108   110     5
  105   108   111     5
  109   108   110     5
  109   108   111     5
  110   108   111     5
  108   111   112     5
  108   111   113     5
  108   111   114     5
  112   111   113     5
  112   111   114     5
  113   111   114     5
  111   114   115     5
  111   114   116     5
  111   114   117     5
  115   114   116     5
  115   114   117     5
  116   114   117     5
  114   117   118     5
  114   117   119     5
  114   117   120     5
  118   117   119     5
  118   117   120     5
  119   117   120     5
  117   120   121     5
  117   120   122     5
  117   120   123     5
  121   120   122     5
  121   120   123     5
  122   120   123     5
  120   123   124     5
  120   123   125     5
  120   123   126     5
  124   123   125     5
  124   123   126     5
  125   123   126     5
  123   126   127     5
  123   126   128     5
  123   126   129     5
  127   126   128     5
  127   126   129     5
  128   126   129     5
  126   129   130     5
  126   129   131     5
  126   129   132     5
  130   129   131     5
  130   129   132     5
  131   129   132     5
  129   132   133     5
  129   132   134     5
  129   132   135     5
  133   132   134     5
  133   132   135     5
  134   132   135     5
  132   135   136     5
  132   135   137     5
  132   135   138     5
  136   135   137     5
  136   135   138     5
  137   135   138     5
  135   138   139     5
  135   138   140     5
  135   138   141     5
  139   138   140     5
  139   138   141     5
  140   138   141     5

[ dihedrals ]
; ai	aj	ak	al	funct	phi0	cp	mult
    5     1     2    17     9
    9     1     2    17     9
   13     1     2    17     9
    2     1     5     6     9
    2     1     5     7     9
    2     1     5     8     9
    2     1     9    10     9
    2     1     9    11     9
    2     1     9    12     9
    5     1     9    10     9
    5     1     9    11     9
    5     1     9    12     9
    2     1    13    14     9
    2     1    13    15     9
    2     1    13    16     9
    5     1    13    14     9
    5     1    13    15     9
    5     1    13    16     9
    9     1    13    14     9
    9     1    13    15     9
    9     1    13    16     9
    3     2     1     5     9
    3     2     1     9     9
    3     2     1    13     9
    4     2     1     5     9
    4     2     1     9     9
    4     2     1    13     9
    1     2    17    18     9
    1     2    17    19     9
    1     2    17    23     9
    3     2    17    18     9
    3     2    17    19     9
    3     2    17    23     9
    4     2    17    18     9
    4     2    17    19     9
    4     2    17    23     9
    6     5     1     9     9
    6     5     1    13     9
    7     5     1     9     9
    7     5     1    13     9
    8     5     1     9     9
    8     5     1    13     9
   10     9     1    13     9
   11     9     1    13     9
   12     9     1    13     9
    2    17    23    20     9
   18    17    23    20     9
   19    17    23    20     9
   21    20    24    25     9
   22    20    24    25     9
   23    20    24    25     9
   17    23    20    21     9
   17    23    20    22     9
   17    23    20    24     9
   20    24    25    26     9
   20    24    25    27     9
   20    24    25    28     9
   24    25    28    29     9
   24    25    28    30     9
   24    25    28    36     9
   26    25    28    29     9
   26    25    28    30     9
   26    25    28    36     9
   27    25    28    29     9
   27    25    28    30     9
   27    25    28    36     9
   25    28    30    31     9
   29    28    30    31     9
   25    28    36    37     9
   25    28    36    38     9
   25    28    36    39     9
   29    28    36    37     9
   29    28    36    38     9
   29    28    36    39     9
   30    28    36    37     9
   30    28    36    38     9
   30    28    36    39     9
   31    30    28    36     9
   28    30    31    32     9
   28    30    31    33     9
   30    31    33    34     9
   30    31    33    35     9
   30    31    33    44     9
   32    31    33    34     9
   32    31    33    35     9
   32    31    33    44     9
   31    33    44    45     9
   31    33    44    46     9
   31    33    44    47     9
   34    33    44    45     9
   34    33    44    46     9
   34    33    44    47     9
   35    33    44    45     9
   35    33    44    46     9
   35    33    44    47     9
   28    36    39    40     9
   37    36    39    40     9
   38    36    39    40     9
   36    39    40    41     9
   36    39    40    42     9
   39    40    42    43     9
   39    40    42    93     9
   41    40    42    43     9
   41    40    42    93     9
   40    42    93    94     9
   40    42    93    95     9
   40    42    93    96     9
   43    42    93    94     9
   43    42    93    95     9
   43    42    93    96     9
   33    44    47    48     9
   33    44    47    49     9
   45    44    47    48     9
   45    44    47    49     9
   46    44    47    48     9
   46    44    47    49     9
   44    47    49    50     9
   44    47    49    51     9
   48    47    49    50     9
   48    47    49    51     9
   47    49    51    52     9
   47    49    51    53     9
   47    49    51    54     9
   50    49    51    52     9
   50    49    51    53     9
   50    49    51    54     9
   49    51    54    55     9
   49    51    54    56     9
   52    51    54    55     9
   52    51    54    56     9
   53    51    54    55     9
   53    51    54    56     9
   51    54    56    57     9
   51    54    56    58     9
   55    54    56    57     9
   55    54    56    58     9
   54    56    58    59     9
   54    56    58    60     9
   54    56    58    61     9
   57    56    58    59     9
   57    56    58    60     9
   57    56    58    61     9
   56    58    61    62     9
   56    58    61    63     9
   59    58    61    62     9
   59    58    61    63     9
   60    58    61    62     9
   60    58    61    63     9
   58    61    63    64     9
   58    61    63    65     9
   62    61    63    64     9
   62    61    63    65     9
   61    63    65    66     9
   61    63    65    67     9
   61    63    65    68     9
   64    63    65    66     9
   64    63    65    67     9
   64    63    65    68     9
   63    65    68    69     9
   63    65    68    70     9
   66    65    68    69     9
   66    65    68    70     9
   67    65    68    69     9
   67    65    68    70     9
   65    68    70    71     9
   65    68    70    72     9
   69    68    70    71     9
   69    68    70    72     9
   68    70    72    73     9
   68    70    72    74     9
   68    70    72    75     9
   71    70    72    73     9
   71    70    72    74     9
   71    70    72    75     9
   70    72    75    76     9
   70    72    75    77     9
   73    72    75    76     9
   73    72    75    77     9
   74    72    75    76     9
   74    72    75    77     9
   72    75    77    78     9
   72    75    77    79     9
   76    75    77    78     9
   76    75    77    79     9
   75    77    79    80     9
   75    77    79    81     9
   75    77    79    82     9
   78    77    79    80     9
   78    77    79    81     9
   78    77    79    82     9
   77    79    82    83     9
   77    79    82    84     9
   80    79    82    83     9
   80    79    82    84     9
   81    79    82    83     9
   81    79    82    84     9
   79    82    84    85     9
   79    82    84    86     9
   83    82    84    85     9
   83    82    84    86     9
   82    84    86    87     9
   82    84    86    88     9
   82    84    86    89     9
   85    84    86    87     9
   85    84    86    88     9
   85    84    86    89     9
   84    86    89    90     9
   84    86    89    91     9
   84    86    89    92     9
   87    86    89    90     9
   87    86    89    91     9
   87    86    89    92     9
   88    86    89    90     9
   88    86    89    91     9
   88    86    89    92     9
   42    93    96    97     9
   42    93    96    98     9
   42    93    96    99     9
   94    93    96    97     9
   94    93    96    98     9
   94    93    96    99     9
   95    93    96    97     9
   95    93    96    98     9
   95    93    96    99     9
   93    96    99   100     9
   93    96    99   101     9
   93    96    99   102     9
   97    96    99   100     9
   97    96    99   101     9
   97    96    99   102     9
   98    96    99   100     9
   98    96    99   101     9
   98    96    99   102     9
   96    99   102   103     9
   96    99   102   104     9
   96    99   102   105     9
  100    99   102   103     9
  100    99   102   104     9
  100    99   102   105     9
  101    99   102   103     9
  101    99   102   104     9
  101    99   102   105     9
   99   102   105   106     9
   99   102   105   107     9
   99   102   105   108     9
  103   102   105   106     9
  103   102   105   107     9
  103   102   105   108     9
  104   102   105   106     9
  104   102   105   107     9
  104   102   105   108     9
  102   105   108   109     9
  102   105   108   110     9
  102   105   108   111     9
  106   105   108   109     9
  106   105   108   110     9
  106   105   108   111     9
  107   105   108   109     9
  107   105   108   110     9
  107   105   108   111     9
  105   108   111   112     9
  105   108   111   113     9
  105   108   111   114     9
  109   108   111   112     9
  109   108   111   113     9
  109   108   111   114     9
  110   108   111   112     9
  110   108   111   113     9
  110   108   111   114     9
  108   111   114   115     9
  108   111   114   116     9
  108   111   114   117     9
  112   111   114   115     9
  112   111   114   116     9
  112   111   114   117     9
  113   111   114   115     9
  113   111   114   116     9
  113   111   114   117     9
  111   114   117   118     9
  111   114   117   119     9
  111   114   117   120     9
  115   114   117   118     9
  115   114   117   119     9
  115   114   117   120     9
  116   114   117   118     9
  116   114   117   119     9
  116   114   117   120     9
  114   117   120   121     9
  114   117   120   122     9
  114   117   120   123     9
  118   117   120   121     9
  118   117   120   122     9
  118   117   120   123     9
  119   117   120   121     9
  119   117   120   122     9
  119   117   120   123     9
  117   120   123   124     9
  117   120   123   125     9
  117   120   123   126     9
  121   120   123   124     9
  121   120   123   125     9
  121   120   123   126     9
  122   120   123   124     9
  122   120   123   125     9
  122   120   123   126     9
  120   123   126   127     9
  120   123   126   128     9
  120   123   126   129     9
  124   123   126   127     9
  124   123   126   128     9
  124   123   126   129     9
  125   123   126   127     9
  125   123   126   128     9
  125   123   126   129     9
  123   126   129   130     9
  123   126   129   131     9
  123   126   129   132     9
  127   126   129   130     9
  127   126   129   131     9
  127   126   129   132     9
  128   126   129   130     9
  128   126   129   131     9
  128   126   129   132     9
  126   129   132   133     9
  126   129   132   134     9
  126   129   132   135     9
  130   129   132   133     9
  130   129   132   134     9
  130   129   132   135     9
  131   129   132   133     9
  131   129   132   134     9
  131   129   132   135     9
  129   132   135   136     9
  129   132   135   137     9
  129   132   135   138     9
  133   132   135   136     9
  133   132   135   137     9
  133   132   135   138     9
  134   132   135   136     9
  134   132   135   137     9
  134   132   135   138     9
  132   135   138   139     9
  132   135   138   140     9
  132   135   138   141     9
  136   135   138   139     9
  136   135   138   140     9
  136   135   138   141     9
  137   135   138   139     9
  137   135   138   140     9
  137   135   138   141     9

[ dihedrals ]
; ai	aj	ak	al	funct	q0	cq
   31    30    33    32     2

#ifdef POSRES
[ position_restraints ]
   20     1     0.0             0.0            POSRES_FC_LIPID
#endif

#ifdef DIHRES
[ dihedral_restraints ]
   25    36    28    30     1   -120.0      2.5       DIHRES_FC
   39    40    42    93     1      0.0      0.0       DIHRES_FC
   44    47    49    51     1      0.0      0.0       DIHRES_FC
   51    54    56    58     1      0.0      0.0       DIHRES_FC
   58    61    63    65     1      0.0      0.0       DIHRES_FC
   65    68    70    72     1      0.0      0.0       DIHRES_FC
   72    75    77    79     1      0.0      0.0       DIHRES_FC
   79    82    84    86     1      0.0      0.0       DIHRES_FC
#endif
