;;
;; Generated by CHARMM-GUI FF-Converter
;;
;; Correspondance:
;; jul316@lehigh.edu or wonpil@lehigh.edu
;;
;; GROMACS topology file for PLC20
;;


[ moleculetype ]
; name	nrexcl
PLC20	     3

[ atoms ]
; nr	type	resnr	residu	atom	cgnr	charge	mass
     1        NTL     11    PLC20      N      1    -0.600000    14.0070   ; qtot -0.600
     2       CTL2     11    PLC20    C12      2    -0.100000    12.0110   ; qtot -0.700
     3         HL     11    PLC20   H12A      3     0.250000     1.0080   ; qtot -0.450
     4         HL     11    PLC20   H12B      4     0.250000     1.0080   ; qtot -0.200
     5       CTL5     11    PLC20    C13      5    -0.350000    12.0110   ; qtot -0.550
     6         HL     11    PLC20   H13A      6     0.250000     1.0080   ; qtot -0.300
     7         HL     11    PLC20   H13B      7     0.250000     1.0080   ; qtot -0.050
     8         HL     11    PLC20   H13C      8     0.250000     1.0080   ; qtot  0.200
     9       CTL5     11    PLC20    C14      9    -0.350000    12.0110   ; qtot -0.150
    10         HL     11    PLC20   H14A     10     0.250000     1.0080   ; qtot  0.100
    11         HL     11    PLC20   H14B     11     0.250000     1.0080   ; qtot  0.350
    12         HL     11    PLC20   H14C     12     0.250000     1.0080   ; qtot  0.600
    13       CTL5     11    PLC20    C15     13    -0.350000    12.0110   ; qtot  0.250
    14         HL     11    PLC20   H15A     14     0.250000     1.0080   ; qtot  0.500
    15         HL     11    PLC20   H15B     15     0.250000     1.0080   ; qtot  0.750
    16         HL     11    PLC20   H15C     16     0.250000     1.0080   ; qtot  1.000
    17       CTL2     11    PLC20    C11     17    -0.080000    12.0110   ; qtot  0.920
    18       HAL2     11    PLC20   H11A     18     0.090000     1.0080   ; qtot  1.010
    19       HAL2     11    PLC20   H11B     19     0.090000     1.0080   ; qtot  1.100
    20         PL     11    PLC20      P     20     1.500000    30.9740   ; qtot  2.600
    21        O2L     11    PLC20    O13     21    -0.780000    15.9994   ; qtot  1.820
    22        O2L     11    PLC20    O14     22    -0.780000    15.9994   ; qtot  1.040
    23       OSLP     11    PLC20    O12     23    -0.570000    15.9994   ; qtot  0.470
    24       OSLP     11    PLC20    O11     24    -0.570000    15.9994   ; qtot -0.100
    25       CTL2     11    PLC20     C1     25    -0.080000    12.0110   ; qtot -0.180
    26       HAL2     11    PLC20     HA     26     0.090000     1.0080   ; qtot -0.090
    27       HAL2     11    PLC20     HB     27     0.090000     1.0080   ; qtot  0.000
    28       CTL1     11    PLC20     C2     28     0.170000    12.0110   ; qtot  0.170
    29       HAL1     11    PLC20     HS     29     0.090000     1.0080   ; qtot  0.260
    30        OSL     11    PLC20    O21     30    -0.490000    15.9994   ; qtot -0.230
    31         CL     11    PLC20    C21     31     0.900000    12.0110   ; qtot  0.670
    32        OBL     11    PLC20    O22     32    -0.630000    15.9994   ; qtot  0.040
    33       CTL2     11    PLC20    C22     33    -0.220000    12.0110   ; qtot -0.180
    34       HAL2     11    PLC20    H2R     34     0.090000     1.0080   ; qtot -0.090
    35       HAL2     11    PLC20    H2S     35     0.090000     1.0080   ; qtot  0.000
    36       CTL2     11    PLC20     C3     36     0.080000    12.0110   ; qtot  0.080
    37       HAL2     11    PLC20     HX     37     0.020000     1.0080   ; qtot  0.100
    38       HAL2     11    PLC20     HY     38     0.020000     1.0080   ; qtot  0.120
    39      OG301     11    PLC20    O31     39    -0.560000    15.9994   ; qtot -0.440
    40       CEL1     11    PLC20    C31     40     0.420000    12.0110   ; qtot -0.020
    41       HEL1     11    PLC20    H1X     41     0.020000     1.0080   ; qtot  0.000
    42       CEL1     11    PLC20    C32     42    -0.150000    12.0110   ; qtot -0.150
    43       HEL1     11    PLC20    H2X     43     0.150000     1.0080   ; qtot  0.000
    44       CTL2     11    PLC20    C23     44    -0.180000    12.0110   ; qtot -0.180
    45       HAL2     11    PLC20    H3R     45     0.090000     1.0080   ; qtot -0.090
    46       HAL2     11    PLC20    H3S     46     0.090000     1.0080   ; qtot  0.000
    47       CTL2     11    PLC20    C24     47    -0.180000    12.0110   ; qtot -0.180
    48       HAL2     11    PLC20    H4R     48     0.090000     1.0080   ; qtot -0.090
    49       HAL2     11    PLC20    H4S     49     0.090000     1.0080   ; qtot  0.000
    50       CEL1     11    PLC20    C25     50    -0.150000    12.0110   ; qtot -0.150
    51       HEL1     11    PLC20    H5R     51     0.150000     1.0080   ; qtot  0.000
    52       CEL1     11    PLC20    C26     52    -0.150000    12.0110   ; qtot -0.150
    53       HEL1     11    PLC20    H6R     53     0.150000     1.0080   ; qtot  0.000
    54       CTL2     11    PLC20    C27     54    -0.180000    12.0110   ; qtot -0.180
    55       HAL2     11    PLC20    H7R     55     0.090000     1.0080   ; qtot -0.090
    56       HAL2     11    PLC20    H7S     56     0.090000     1.0080   ; qtot  0.000
    57       CEL1     11    PLC20    C28     57    -0.150000    12.0110   ; qtot -0.150
    58       HEL1     11    PLC20    H8R     58     0.150000     1.0080   ; qtot  0.000
    59       CEL1     11    PLC20    C29     59    -0.150000    12.0110   ; qtot -0.150
    60       HEL1     11    PLC20    H9R     60     0.150000     1.0080   ; qtot  0.000
    61       CTL2     11    PLC20   C210     61    -0.180000    12.0110   ; qtot -0.180
    62       HAL2     11    PLC20   H10R     62     0.090000     1.0080   ; qtot -0.090
    63       HAL2     11    PLC20   H10S     63     0.090000     1.0080   ; qtot  0.000
    64       CEL1     11    PLC20   C211     64    -0.150000    12.0110   ; qtot -0.150
    65       HEL1     11    PLC20   H11R     65     0.150000     1.0080   ; qtot  0.000
    66       CEL1     11    PLC20   C212     66    -0.150000    12.0110   ; qtot -0.150
    67       HEL1     11    PLC20   H12R     67     0.150000     1.0080   ; qtot  0.000
    68       CTL2     11    PLC20   C213     68    -0.180000    12.0110   ; qtot -0.180
    69       HAL2     11    PLC20   H13R     69     0.090000     1.0080   ; qtot -0.090
    70       HAL2     11    PLC20   H13S     70     0.090000     1.0080   ; qtot  0.000
    71       CEL1     11    PLC20   C214     71    -0.150000    12.0110   ; qtot -0.150
    72       HEL1     11    PLC20   H14R     72     0.150000     1.0080   ; qtot  0.000
    73       CEL1     11    PLC20   C215     73    -0.150000    12.0110   ; qtot -0.150
    74       HEL1     11    PLC20   H15R     74     0.150000     1.0080   ; qtot  0.000
    75       CTL2     11    PLC20   C216     75    -0.180000    12.0110   ; qtot -0.180
    76       HAL2     11    PLC20   H16R     76     0.090000     1.0080   ; qtot -0.090
    77       HAL2     11    PLC20   H16S     77     0.090000     1.0080   ; qtot  0.000
    78       CTL2     11    PLC20   C217     78    -0.180000    12.0110   ; qtot -0.180
    79       HAL2     11    PLC20   H17R     79     0.090000     1.0080   ; qtot -0.090
    80       HAL2     11    PLC20   H17S     80     0.090000     1.0080   ; qtot  0.000
    81       CTL2     11    PLC20   C218     81    -0.180000    12.0110   ; qtot -0.180
    82       HAL2     11    PLC20   H18R     82     0.090000     1.0080   ; qtot -0.090
    83       HAL2     11    PLC20   H18S     83     0.090000     1.0080   ; qtot  0.000
    84       CTL2     11    PLC20   C219     84    -0.180000    12.0110   ; qtot -0.180
    85       HAL2     11    PLC20   H19R     85     0.090000     1.0080   ; qtot -0.090
    86       HAL2     11    PLC20   H19S     86     0.090000     1.0080   ; qtot  0.000
    87       CTL3     11    PLC20   C220     87    -0.270000    12.0110   ; qtot -0.270
    88       HAL3     11    PLC20   H20R     88     0.090000     1.0080   ; qtot -0.180
    89       HAL3     11    PLC20   H20S     89     0.090000     1.0080   ; qtot -0.090
    90       HAL3     11    PLC20   H20T     90     0.090000     1.0080   ; qtot  0.000
    91       CTL2     11    PLC20    C33     91    -0.180000    12.0110   ; qtot -0.180
    92       HAL2     11    PLC20    H3X     92     0.090000     1.0080   ; qtot -0.090
    93       HAL2     11    PLC20    H3Y     93     0.090000     1.0080   ; qtot  0.000
    94       CTL2     11    PLC20    C34     94    -0.180000    12.0110   ; qtot -0.180
    95       HAL2     11    PLC20    H4X     95     0.090000     1.0080   ; qtot -0.090
    96       HAL2     11    PLC20    H4Y     96     0.090000     1.0080   ; qtot  0.000
    97       CTL2     11    PLC20    C35     97    -0.180000    12.0110   ; qtot -0.180
    98       HAL2     11    PLC20    H5X     98     0.090000     1.0080   ; qtot -0.090
    99       HAL2     11    PLC20    H5Y     99     0.090000     1.0080   ; qtot  0.000
   100       CTL2     11    PLC20    C36    100    -0.180000    12.0110   ; qtot -0.180
   101       HAL2     11    PLC20    H6X    101     0.090000     1.0080   ; qtot -0.090
   102       HAL2     11    PLC20    H6Y    102     0.090000     1.0080   ; qtot  0.000
   103       CTL2     11    PLC20    C37    103    -0.180000    12.0110   ; qtot -0.180
   104       HAL2     11    PLC20    H7X    104     0.090000     1.0080   ; qtot -0.090
   105       HAL2     11    PLC20    H7Y    105     0.090000     1.0080   ; qtot  0.000
   106       CTL2     11    PLC20    C38    106    -0.180000    12.0110   ; qtot -0.180
   107       HAL2     11    PLC20    H8X    107     0.090000     1.0080   ; qtot -0.090
   108       HAL2     11    PLC20    H8Y    108     0.090000     1.0080   ; qtot  0.000
   109       CTL2     11    PLC20    C39    109    -0.180000    12.0110   ; qtot -0.180
   110       HAL2     11    PLC20    H9X    110     0.090000     1.0080   ; qtot -0.090
   111       HAL2     11    PLC20    H9Y    111     0.090000     1.0080   ; qtot  0.000
   112       CTL2     11    PLC20   C310    112    -0.180000    12.0110   ; qtot -0.180
   113       HAL2     11    PLC20   H10X    113     0.090000     1.0080   ; qtot -0.090
   114       HAL2     11    PLC20   H10Y    114     0.090000     1.0080   ; qtot  0.000
   115       CTL2     11    PLC20   C311    115    -0.180000    12.0110   ; qtot -0.180
   116       HAL2     11    PLC20   H11X    116     0.090000     1.0080   ; qtot -0.090
   117       HAL2     11    PLC20   H11Y    117     0.090000     1.0080   ; qtot  0.000
   118       CTL2     11    PLC20   C312    118    -0.180000    12.0110   ; qtot -0.180
   119       HAL2     11    PLC20   H12X    119     0.090000     1.0080   ; qtot -0.090
   120       HAL2     11    PLC20   H12Y    120     0.090000     1.0080   ; qtot  0.000
   121       CTL2     11    PLC20   C313    121    -0.180000    12.0110   ; qtot -0.180
   122       HAL2     11    PLC20   H13X    122     0.090000     1.0080   ; qtot -0.090
   123       HAL2     11    PLC20   H13Y    123     0.090000     1.0080   ; qtot  0.000
   124       CTL2     11    PLC20   C314    124    -0.180000    12.0110   ; qtot -0.180
   125       HAL2     11    PLC20   H14X    125     0.090000     1.0080   ; qtot -0.090
   126       HAL2     11    PLC20   H14Y    126     0.090000     1.0080   ; qtot  0.000
   127       CTL2     11    PLC20   C315    127    -0.180000    12.0110   ; qtot -0.180
   128       HAL2     11    PLC20   H15X    128     0.090000     1.0080   ; qtot -0.090
   129       HAL2     11    PLC20   H15Y    129     0.090000     1.0080   ; qtot  0.000
   130       CTL2     11    PLC20   C316    130    -0.180000    12.0110   ; qtot -0.180
   131       HAL2     11    PLC20   H16X    131     0.090000     1.0080   ; qtot -0.090
   132       HAL2     11    PLC20   H16Y    132     0.090000     1.0080   ; qtot  0.000
   133       CTL2     11    PLC20   C317    133    -0.180000    12.0110   ; qtot -0.180
   134       HAL2     11    PLC20   H17X    134     0.090000     1.0080   ; qtot -0.090
   135       HAL2     11    PLC20   H17Y    135     0.090000     1.0080   ; qtot  0.000
   136       CTL3     11    PLC20   C318    136    -0.270000    12.0110   ; qtot -0.270
   137       HAL3     11    PLC20   H18X    137     0.090000     1.0080   ; qtot -0.180
   138       HAL3     11    PLC20   H18Y    138     0.090000     1.0080   ; qtot -0.090
   139       HAL3     11    PLC20   H18Z    139     0.090000     1.0080   ; qtot  0.000

[ bonds ]
; ai	aj	funct	b0	Kb
    1     2     1
    1     5     1
    1     9     1
    1    13     1
    2     3     1
    2     4     1
    2    17     1
    5     6     1
    5     7     1
    5     8     1
    9    10     1
    9    11     1
    9    12     1
   13    14     1
   13    15     1
   13    16     1
   17    18     1
   17    19     1
   17    23     1
   20    21     1
   20    22     1
   23    20     1
   20    24     1
   24    25     1
   25    26     1
   25    27     1
   25    28     1
   28    29     1
   28    30     1
   28    36     1
   30    31     1
   31    32     1
   31    33     1
   33    34     1
   33    35     1
   33    44     1
   36    37     1
   36    38     1
   36    39     1
   39    40     1
   40    41     1
   40    42     1
   42    43     1
   42    91     1
   44    45     1
   44    46     1
   44    47     1
   47    48     1
   47    49     1
   47    50     1
   50    51     1
   50    52     1
   52    53     1
   52    54     1
   54    55     1
   54    56     1
   54    57     1
   57    58     1
   57    59     1
   59    60     1
   59    61     1
   61    62     1
   61    63     1
   61    64     1
   64    65     1
   64    66     1
   66    67     1
   66    68     1
   68    69     1
   68    70     1
   68    71     1
   71    72     1
   71    73     1
   73    74     1
   73    75     1
   75    76     1
   75    77     1
   75    78     1
   78    79     1
   78    80     1
   78    81     1
   81    82     1
   81    83     1
   81    84     1
   84    85     1
   84    86     1
   84    87     1
   87    88     1
   87    89     1
   87    90     1
   91    92     1
   91    93     1
   91    94     1
   94    95     1
   94    96     1
   94    97     1
   97    98     1
   97    99     1
   97   100     1
  100   101     1
  100   102     1
  100   103     1
  103   104     1
  103   105     1
  103   106     1
  106   107     1
  106   108     1
  106   109     1
  109   110     1
  109   111     1
  109   112     1
  112   113     1
  112   114     1
  112   115     1
  115   116     1
  115   117     1
  115   118     1
  118   119     1
  118   120     1
  118   121     1
  121   122     1
  121   123     1
  121   124     1
  124   125     1
  124   126     1
  124   127     1
  127   128     1
  127   129     1
  127   130     1
  130   131     1
  130   132     1
  130   133     1
  133   134     1
  133   135     1
  133   136     1
  136   137     1
  136   138     1
  136   139     1

[ pairs ]
; ai	aj	funct	c6	c12 or
; ai	aj	funct	fudgeQQ	q1	q2	c6	c12
    1    18     1
    1    19     1
    1    23     1
    2     6     1
    2     7     1
    2     8     1
    2    10     1
    2    11     1
    2    12     1
    2    14     1
    2    15     1
    2    16     1
    2    20     1
    3     5     1
    3     9     1
    3    13     1
    3    18     1
    3    19     1
    3    23     1
    4     5     1
    4     9     1
    4    13     1
    4    18     1
    4    19     1
    4    23     1
    5    10     1
    5    11     1
    5    12     1
    5    14     1
    5    15     1
    5    16     1
    5    17     1
    6     9     1
    6    13     1
    7     9     1
    7    13     1
    8     9     1
    8    13     1
    9    14     1
    9    15     1
    9    16     1
    9    17     1
   10    13     1
   11    13     1
   12    13     1
   13    17     1
   17    21     1
   17    22     1
   17    24     1
   18    20     1
   19    20     1
   20    26     1
   20    27     1
   20    28     1
   21    25     1
   22    25     1
   23    25     1
   24    29     1
   24    30     1
   24    36     1
   25    31     1
   25    37     1
   25    38     1
   25    39     1
   26    29     1
   26    30     1
   26    36     1
   27    29     1
   27    30     1
   27    36     1
   28    32     1
   28    33     1
   28    40     1
   29    31     1
   29    37     1
   29    38     1
   29    39     1
   30    34     1
   30    35     1
   30    37     1
   30    38     1
   30    39     1
   30    44     1
   31    36     1
   31    45     1
   31    46     1
   31    47     1
   32    34     1
   32    35     1
   32    44     1
   33    48     1
   33    49     1
   33    50     1
   34    45     1
   34    46     1
   34    47     1
   35    45     1
   35    46     1
   35    47     1
   36    41     1
   36    42     1
   37    40     1
   38    40     1
   39    43     1
   39    91     1
   40    92     1
   40    93     1
   40    94     1
   41    43     1
   41    91     1
   42    95     1
   42    96     1
   42    97     1
   43    92     1
   43    93     1
   43    94     1
   44    51     1
   44    52     1
   45    48     1
   45    49     1
   45    50     1
   46    48     1
   46    49     1
   46    50     1
   47    53     1
   47    54     1
   48    51     1
   48    52     1
   49    51     1
   49    52     1
   50    55     1
   50    56     1
   50    57     1
   51    53     1
   51    54     1
   52    58     1
   52    59     1
   53    55     1
   53    56     1
   53    57     1
   54    60     1
   54    61     1
   55    58     1
   55    59     1
   56    58     1
   56    59     1
   57    62     1
   57    63     1
   57    64     1
   58    60     1
   58    61     1
   59    65     1
   59    66     1
   60    62     1
   60    63     1
   60    64     1
   61    67     1
   61    68     1
   62    65     1
   62    66     1
   63    65     1
   63    66     1
   64    69     1
   64    70     1
   64    71     1
   65    67     1
   65    68     1
   66    72     1
   66    73     1
   67    69     1
   67    70     1
   67    71     1
   68    74     1
   68    75     1
   69    72     1
   69    73     1
   70    72     1
   70    73     1
   71    76     1
   71    77     1
   71    78     1
   72    74     1
   72    75     1
   73    79     1
   73    80     1
   73    81     1
   74    76     1
   74    77     1
   74    78     1
   75    82     1
   75    83     1
   75    84     1
   76    79     1
   76    80     1
   76    81     1
   77    79     1
   77    80     1
   77    81     1
   78    85     1
   78    86     1
   78    87     1
   79    82     1
   79    83     1
   79    84     1
   80    82     1
   80    83     1
   80    84     1
   81    88     1
   81    89     1
   81    90     1
   82    85     1
   82    86     1
   82    87     1
   83    85     1
   83    86     1
   83    87     1
   85    88     1
   85    89     1
   85    90     1
   86    88     1
   86    89     1
   86    90     1
   91    98     1
   91    99     1
   91   100     1
   92    95     1
   92    96     1
   92    97     1
   93    95     1
   93    96     1
   93    97     1
   94   101     1
   94   102     1
   94   103     1
   95    98     1
   95    99     1
   95   100     1
   96    98     1
   96    99     1
   96   100     1
   97   104     1
   97   105     1
   97   106     1
   98   101     1
   98   102     1
   98   103     1
   99   101     1
   99   102     1
   99   103     1
  100   107     1
  100   108     1
  100   109     1
  101   104     1
  101   105     1
  101   106     1
  102   104     1
  102   105     1
  102   106     1
  103   110     1
  103   111     1
  103   112     1
  104   107     1
  104   108     1
  104   109     1
  105   107     1
  105   108     1
  105   109     1
  106   113     1
  106   114     1
  106   115     1
  107   110     1
  107   111     1
  107   112     1
  108   110     1
  108   111     1
  108   112     1
  109   116     1
  109   117     1
  109   118     1
  110   113     1
  110   114     1
  110   115     1
  111   113     1
  111   114     1
  111   115     1
  112   119     1
  112   120     1
  112   121     1
  113   116     1
  113   117     1
  113   118     1
  114   116     1
  114   117     1
  114   118     1
  115   122     1
  115   123     1
  115   124     1
  116   119     1
  116   120     1
  116   121     1
  117   119     1
  117   120     1
  117   121     1
  118   125     1
  118   126     1
  118   127     1
  119   122     1
  119   123     1
  119   124     1
  120   122     1
  120   123     1
  120   124     1
  121   128     1
  121   129     1
  121   130     1
  122   125     1
  122   126     1
  122   127     1
  123   125     1
  123   126     1
  123   127     1
  124   131     1
  124   132     1
  124   133     1
  125   128     1
  125   129     1
  125   130     1
  126   128     1
  126   129     1
  126   130     1
  127   134     1
  127   135     1
  127   136     1
  128   131     1
  128   132     1
  128   133     1
  129   131     1
  129   132     1
  129   133     1
  130   137     1
  130   138     1
  130   139     1
  131   134     1
  131   135     1
  131   136     1
  132   134     1
  132   135     1
  132   136     1
  134   137     1
  134   138     1
  134   139     1
  135   137     1
  135   138     1
  135   139     1

[ angles ] 
; ai	aj	ak	funct	th0	cth	S0	Kub
    2     1     5     5
    2     1     9     5
    2     1    13     5
    5     1     9     5
    5     1    13     5
    9     1    13     5
    1     2     3     5
    1     2     4     5
    1     2    17     5
    3     2     4     5
    3     2    17     5
    4     2    17     5
    1     5     6     5
    1     5     7     5
    1     5     8     5
    6     5     7     5
    6     5     8     5
    7     5     8     5
    1     9    10     5
    1     9    11     5
    1     9    12     5
   10     9    11     5
   10     9    12     5
   11     9    12     5
    1    13    14     5
    1    13    15     5
    1    13    16     5
   14    13    15     5
   14    13    16     5
   15    13    16     5
    2    17    18     5
    2    17    19     5
    2    17    23     5
   18    17    19     5
   18    17    23     5
   19    17    23     5
   21    20    22     5
   21    20    23     5
   21    20    24     5
   22    20    23     5
   22    20    24     5
   23    20    24     5
   17    23    20     5
   20    24    25     5
   24    25    26     5
   24    25    27     5
   24    25    28     5
   26    25    27     5
   26    25    28     5
   27    25    28     5
   25    28    29     5
   25    28    30     5
   25    28    36     5
   29    28    30     5
   29    28    36     5
   30    28    36     5
   28    30    31     5
   30    31    32     5
   30    31    33     5
   32    31    33     5
   31    33    34     5
   31    33    35     5
   31    33    44     5
   34    33    35     5
   34    33    44     5
   35    33    44     5
   28    36    37     5
   28    36    38     5
   28    36    39     5
   37    36    38     5
   37    36    39     5
   38    36    39     5
   36    39    40     5
   39    40    41     5
   39    40    42     5
   41    40    42     5
   40    42    43     5
   40    42    91     5
   43    42    91     5
   33    44    45     5
   33    44    46     5
   33    44    47     5
   45    44    46     5
   45    44    47     5
   46    44    47     5
   44    47    48     5
   44    47    49     5
   44    47    50     5
   48    47    49     5
   48    47    50     5
   49    47    50     5
   47    50    51     5
   47    50    52     5
   51    50    52     5
   50    52    53     5
   50    52    54     5
   53    52    54     5
   52    54    55     5
   52    54    56     5
   52    54    57     5
   55    54    56     5
   55    54    57     5
   56    54    57     5
   54    57    58     5
   54    57    59     5
   58    57    59     5
   57    59    60     5
   57    59    61     5
   60    59    61     5
   59    61    62     5
   59    61    63     5
   59    61    64     5
   62    61    63     5
   62    61    64     5
   63    61    64     5
   61    64    65     5
   61    64    66     5
   65    64    66     5
   64    66    67     5
   64    66    68     5
   67    66    68     5
   66    68    69     5
   66    68    70     5
   66    68    71     5
   69    68    70     5
   69    68    71     5
   70    68    71     5
   68    71    72     5
   68    71    73     5
   72    71    73     5
   71    73    74     5
   71    73    75     5
   74    73    75     5
   73    75    76     5
   73    75    77     5
   73    75    78     5
   76    75    77     5
   76    75    78     5
   77    75    78     5
   75    78    79     5
   75    78    80     5
   75    78    81     5
   79    78    80     5
   79    78    81     5
   80    78    81     5
   78    81    82     5
   78    81    83     5
   78    81    84     5
   82    81    83     5
   82    81    84     5
   83    81    84     5
   81    84    85     5
   81    84    86     5
   81    84    87     5
   85    84    86     5
   85    84    87     5
   86    84    87     5
   84    87    88     5
   84    87    89     5
   84    87    90     5
   88    87    89     5
   88    87    90     5
   89    87    90     5
   42    91    92     5
   42    91    93     5
   42    91    94     5
   92    91    93     5
   92    91    94     5
   93    91    94     5
   91    94    95     5
   91    94    96     5
   91    94    97     5
   95    94    96     5
   95    94    97     5
   96    94    97     5
   94    97    98     5
   94    97    99     5
   94    97   100     5
   98    97    99     5
   98    97   100     5
   99    97   100     5
   97   100   101     5
   97   100   102     5
   97   100   103     5
  101   100   102     5
  101   100   103     5
  102   100   103     5
  100   103   104     5
  100   103   105     5
  100   103   106     5
  104   103   105     5
  104   103   106     5
  105   103   106     5
  103   106   107     5
  103   106   108     5
  103   106   109     5
  107   106   108     5
  107   106   109     5
  108   106   109     5
  106   109   110     5
  106   109   111     5
  106   109   112     5
  110   109   111     5
  110   109   112     5
  111   109   112     5
  109   112   113     5
  109   112   114     5
  109   112   115     5
  113   112   114     5
  113   112   115     5
  114   112   115     5
  112   115   116     5
  112   115   117     5
  112   115   118     5
  116   115   117     5
  116   115   118     5
  117   115   118     5
  115   118   119     5
  115   118   120     5
  115   118   121     5
  119   118   120     5
  119   118   121     5
  120   118   121     5
  118   121   122     5
  118   121   123     5
  118   121   124     5
  122   121   123     5
  122   121   124     5
  123   121   124     5
  121   124   125     5
  121   124   126     5
  121   124   127     5
  125   124   126     5
  125   124   127     5
  126   124   127     5
  124   127   128     5
  124   127   129     5
  124   127   130     5
  128   127   129     5
  128   127   130     5
  129   127   130     5
  127   130   131     5
  127   130   132     5
  127   130   133     5
  131   130   132     5
  131   130   133     5
  132   130   133     5
  130   133   134     5
  130   133   135     5
  130   133   136     5
  134   133   135     5
  134   133   136     5
  135   133   136     5
  133   136   137     5
  133   136   138     5
  133   136   139     5
  137   136   138     5
  137   136   139     5
  138   136   139     5

[ dihedrals ]
; ai	aj	ak	al	funct	phi0	cp	mult
    5     1     2    17     9
    9     1     2    17     9
   13     1     2    17     9
    2     1     5     6     9
    2     1     5     7     9
    2     1     5     8     9
    2     1     9    10     9
    2     1     9    11     9
    2     1     9    12     9
    5     1     9    10     9
    5     1     9    11     9
    5     1     9    12     9
    2     1    13    14     9
    2     1    13    15     9
    2     1    13    16     9
    5     1    13    14     9
    5     1    13    15     9
    5     1    13    16     9
    9     1    13    14     9
    9     1    13    15     9
    9     1    13    16     9
    3     2     1     5     9
    3     2     1     9     9
    3     2     1    13     9
    4     2     1     5     9
    4     2     1     9     9
    4     2     1    13     9
    1     2    17    18     9
    1     2    17    19     9
    1     2    17    23     9
    3     2    17    18     9
    3     2    17    19     9
    3     2    17    23     9
    4     2    17    18     9
    4     2    17    19     9
    4     2    17    23     9
    6     5     1     9     9
    6     5     1    13     9
    7     5     1     9     9
    7     5     1    13     9
    8     5     1     9     9
    8     5     1    13     9
   10     9     1    13     9
   11     9     1    13     9
   12     9     1    13     9
    2    17    23    20     9
   18    17    23    20     9
   19    17    23    20     9
   21    20    24    25     9
   22    20    24    25     9
   23    20    24    25     9
   17    23    20    21     9
   17    23    20    22     9
   17    23    20    24     9
   20    24    25    26     9
   20    24    25    27     9
   20    24    25    28     9
   24    25    28    29     9
   24    25    28    30     9
   24    25    28    36     9
   26    25    28    29     9
   26    25    28    30     9
   26    25    28    36     9
   27    25    28    29     9
   27    25    28    30     9
   27    25    28    36     9
   25    28    30    31     9
   29    28    30    31     9
   25    28    36    37     9
   25    28    36    38     9
   25    28    36    39     9
   29    28    36    37     9
   29    28    36    38     9
   29    28    36    39     9
   30    28    36    37     9
   30    28    36    38     9
   30    28    36    39     9
   31    30    28    36     9
   28    30    31    32     9
   28    30    31    33     9
   30    31    33    34     9
   30    31    33    35     9
   30    31    33    44     9
   32    31    33    34     9
   32    31    33    35     9
   32    31    33    44     9
   31    33    44    45     9
   31    33    44    46     9
   31    33    44    47     9
   34    33    44    45     9
   34    33    44    46     9
   34    33    44    47     9
   35    33    44    45     9
   35    33    44    46     9
   35    33    44    47     9
   28    36    39    40     9
   37    36    39    40     9
   38    36    39    40     9
   36    39    40    41     9
   36    39    40    42     9
   39    40    42    43     9
   39    40    42    91     9
   41    40    42    43     9
   41    40    42    91     9
   40    42    91    92     9
   40    42    91    93     9
   40    42    91    94     9
   43    42    91    92     9
   43    42    91    93     9
   43    42    91    94     9
   33    44    47    48     9
   33    44    47    49     9
   33    44    47    50     9
   45    44    47    48     9
   45    44    47    49     9
   45    44    47    50     9
   46    44    47    48     9
   46    44    47    49     9
   46    44    47    50     9
   44    47    50    51     9
   44    47    50    52     9
   48    47    50    51     9
   48    47    50    52     9
   49    47    50    51     9
   49    47    50    52     9
   47    50    52    53     9
   47    50    52    54     9
   51    50    52    53     9
   51    50    52    54     9
   50    52    54    55     9
   50    52    54    56     9
   50    52    54    57     9
   53    52    54    55     9
   53    52    54    56     9
   53    52    54    57     9
   52    54    57    58     9
   52    54    57    59     9
   55    54    57    58     9
   55    54    57    59     9
   56    54    57    58     9
   56    54    57    59     9
   54    57    59    60     9
   54    57    59    61     9
   58    57    59    60     9
   58    57    59    61     9
   57    59    61    62     9
   57    59    61    63     9
   57    59    61    64     9
   60    59    61    62     9
   60    59    61    63     9
   60    59    61    64     9
   59    61    64    65     9
   59    61    64    66     9
   62    61    64    65     9
   62    61    64    66     9
   63    61    64    65     9
   63    61    64    66     9
   61    64    66    67     9
   61    64    66    68     9
   65    64    66    67     9
   65    64    66    68     9
   64    66    68    69     9
   64    66    68    70     9
   64    66    68    71     9
   67    66    68    69     9
   67    66    68    70     9
   67    66    68    71     9
   66    68    71    72     9
   66    68    71    73     9
   69    68    71    72     9
   69    68    71    73     9
   70    68    71    72     9
   70    68    71    73     9
   68    71    73    74     9
   68    71    73    75     9
   72    71    73    74     9
   72    71    73    75     9
   71    73    75    76     9
   71    73    75    77     9
   71    73    75    78     9
   74    73    75    76     9
   74    73    75    77     9
   74    73    75    78     9
   73    75    78    79     9
   73    75    78    80     9
   73    75    78    81     9
   76    75    78    79     9
   76    75    78    80     9
   76    75    78    81     9
   77    75    78    79     9
   77    75    78    80     9
   77    75    78    81     9
   75    78    81    82     9
   75    78    81    83     9
   75    78    81    84     9
   79    78    81    82     9
   79    78    81    83     9
   79    78    81    84     9
   80    78    81    82     9
   80    78    81    83     9
   80    78    81    84     9
   78    81    84    85     9
   78    81    84    86     9
   78    81    84    87     9
   82    81    84    85     9
   82    81    84    86     9
   82    81    84    87     9
   83    81    84    85     9
   83    81    84    86     9
   83    81    84    87     9
   81    84    87    88     9
   81    84    87    89     9
   81    84    87    90     9
   85    84    87    88     9
   85    84    87    89     9
   85    84    87    90     9
   86    84    87    88     9
   86    84    87    89     9
   86    84    87    90     9
   42    91    94    95     9
   42    91    94    96     9
   42    91    94    97     9
   92    91    94    95     9
   92    91    94    96     9
   92    91    94    97     9
   93    91    94    95     9
   93    91    94    96     9
   93    91    94    97     9
   91    94    97    98     9
   91    94    97    99     9
   91    94    97   100     9
   95    94    97    98     9
   95    94    97    99     9
   95    94    97   100     9
   96    94    97    98     9
   96    94    97    99     9
   96    94    97   100     9
   94    97   100   101     9
   94    97   100   102     9
   94    97   100   103     9
   98    97   100   101     9
   98    97   100   102     9
   98    97   100   103     9
   99    97   100   101     9
   99    97   100   102     9
   99    97   100   103     9
   97   100   103   104     9
   97   100   103   105     9
   97   100   103   106     9
  101   100   103   104     9
  101   100   103   105     9
  101   100   103   106     9
  102   100   103   104     9
  102   100   103   105     9
  102   100   103   106     9
  100   103   106   107     9
  100   103   106   108     9
  100   103   106   109     9
  104   103   106   107     9
  104   103   106   108     9
  104   103   106   109     9
  105   103   106   107     9
  105   103   106   108     9
  105   103   106   109     9
  103   106   109   110     9
  103   106   109   111     9
  103   106   109   112     9
  107   106   109   110     9
  107   106   109   111     9
  107   106   109   112     9
  108   106   109   110     9
  108   106   109   111     9
  108   106   109   112     9
  106   109   112   113     9
  106   109   112   114     9
  106   109   112   115     9
  110   109   112   113     9
  110   109   112   114     9
  110   109   112   115     9
  111   109   112   113     9
  111   109   112   114     9
  111   109   112   115     9
  109   112   115   116     9
  109   112   115   117     9
  109   112   115   118     9
  113   112   115   116     9
  113   112   115   117     9
  113   112   115   118     9
  114   112   115   116     9
  114   112   115   117     9
  114   112   115   118     9
  112   115   118   119     9
  112   115   118   120     9
  112   115   118   121     9
  116   115   118   119     9
  116   115   118   120     9
  116   115   118   121     9
  117   115   118   119     9
  117   115   118   120     9
  117   115   118   121     9
  115   118   121   122     9
  115   118   121   123     9
  115   118   121   124     9
  119   118   121   122     9
  119   118   121   123     9
  119   118   121   124     9
  120   118   121   122     9
  120   118   121   123     9
  120   118   121   124     9
  118   121   124   125     9
  118   121   124   126     9
  118   121   124   127     9
  122   121   124   125     9
  122   121   124   126     9
  122   121   124   127     9
  123   121   124   125     9
  123   121   124   126     9
  123   121   124   127     9
  121   124   127   128     9
  121   124   127   129     9
  121   124   127   130     9
  125   124   127   128     9
  125   124   127   129     9
  125   124   127   130     9
  126   124   127   128     9
  126   124   127   129     9
  126   124   127   130     9
  124   127   130   131     9
  124   127   130   132     9
  124   127   130   133     9
  128   127   130   131     9
  128   127   130   132     9
  128   127   130   133     9
  129   127   130   131     9
  129   127   130   132     9
  129   127   130   133     9
  127   130   133   134     9
  127   130   133   135     9
  127   130   133   136     9
  131   130   133   134     9
  131   130   133   135     9
  131   130   133   136     9
  132   130   133   134     9
  132   130   133   135     9
  132   130   133   136     9
  130   133   136   137     9
  130   133   136   138     9
  130   133   136   139     9
  134   133   136   137     9
  134   133   136   138     9
  134   133   136   139     9
  135   133   136   137     9
  135   133   136   138     9
  135   133   136   139     9

[ dihedrals ]
; ai	aj	ak	al	funct	q0	cq
   31    30    33    32     2

#ifdef POSRES
[ position_restraints ]
   20     1     0.0             0.0            POSRES_FC_LIPID
#endif

#ifdef DIHRES
[ dihedral_restraints ]
   25    36    28    30     1   -120.0      2.5       DIHRES_FC
   39    40    42    91     1      0.0      0.0       DIHRES_FC
   47    50    52    54     1      0.0      0.0       DIHRES_FC
   54    57    59    61     1      0.0      0.0       DIHRES_FC
   61    64    66    68     1      0.0      0.0       DIHRES_FC
   68    71    73    75     1      0.0      0.0       DIHRES_FC
#endif
