;;
;; Generated by CHARMM-GUI FF-Converter
;;
;; Correspondance:
;; jul316@lehigh.edu or wonpil@lehigh.edu
;;
;; GROMACS topology file for PLEEA
;;


[ moleculetype ]
; name	nrexcl
PLEEA	     3

[ atoms ]
; nr	type	resnr	residu	atom	cgnr	charge	mass
     1       NH3L     51    PLEEA      N      1    -0.300000    14.0070   ; qtot -0.300
     2        HCL     51    PLEEA    HN1      2     0.330000     1.0080   ; qtot  0.030
     3        HCL     51    PLEEA    HN2      3     0.330000     1.0080   ; qtot  0.360
     4        HCL     51    PLEEA    HN3      4     0.330000     1.0080   ; qtot  0.690
     5       CTL2     51    PLEEA    C12      5     0.130000    12.0110   ; qtot  0.820
     6       HAL2     51    PLEEA   H12A      6     0.090000     1.0080   ; qtot  0.910
     7       HAL2     51    PLEEA   H12B      7     0.090000     1.0080   ; qtot  1.000
     8       CTL2     51    PLEEA    C11      8    -0.080000    12.0110   ; qtot  0.920
     9       HAL2     51    PLEEA   H11A      9     0.090000     1.0080   ; qtot  1.010
    10       HAL2     51    PLEEA   H11B     10     0.090000     1.0080   ; qtot  1.100
    11         PL     51    PLEEA      P     11     1.500000    30.9740   ; qtot  2.600
    12        O2L     51    PLEEA    O13     12    -0.780000    15.9994   ; qtot  1.820
    13        O2L     51    PLEEA    O14     13    -0.780000    15.9994   ; qtot  1.040
    14       OSLP     51    PLEEA    O12     14    -0.570000    15.9994   ; qtot  0.470
    15       OSLP     51    PLEEA    O11     15    -0.570000    15.9994   ; qtot -0.100
    16       CTL2     51    PLEEA     C1     16    -0.080000    12.0110   ; qtot -0.180
    17       HAL2     51    PLEEA     HA     17     0.090000     1.0080   ; qtot -0.090
    18       HAL2     51    PLEEA     HB     18     0.090000     1.0080   ; qtot  0.000
    19       CTL1     51    PLEEA     C2     19     0.170000    12.0110   ; qtot  0.170
    20       HAL1     51    PLEEA     HS     20     0.090000     1.0080   ; qtot  0.260
    21        OSL     51    PLEEA    O21     21    -0.490000    15.9994   ; qtot -0.230
    22         CL     51    PLEEA    C21     22     0.900000    12.0110   ; qtot  0.670
    23        OBL     51    PLEEA    O22     23    -0.630000    15.9994   ; qtot  0.040
    24       CTL2     51    PLEEA    C22     24    -0.220000    12.0110   ; qtot -0.180
    25       HAL2     51    PLEEA    H2R     25     0.090000     1.0080   ; qtot -0.090
    26       HAL2     51    PLEEA    H2S     26     0.090000     1.0080   ; qtot  0.000
    27       CTL2     51    PLEEA     C3     27     0.080000    12.0110   ; qtot  0.080
    28       HAL2     51    PLEEA     HX     28     0.020000     1.0080   ; qtot  0.100
    29       HAL2     51    PLEEA     HY     29     0.020000     1.0080   ; qtot  0.120
    30      OG301     51    PLEEA    O31     30    -0.560000    15.9994   ; qtot -0.440
    31       CEL1     51    PLEEA    C31     31     0.420000    12.0110   ; qtot -0.020
    32       HEL1     51    PLEEA    H1X     32     0.020000     1.0080   ; qtot  0.000
    33       CEL1     51    PLEEA    C32     33    -0.150000    12.0110   ; qtot -0.150
    34       HEL1     51    PLEEA    H2X     34     0.150000     1.0080   ; qtot  0.000
    35       CTL2     51    PLEEA    C23     35    -0.180000    12.0110   ; qtot -0.180
    36       HAL2     51    PLEEA    H3R     36     0.090000     1.0080   ; qtot -0.090
    37       HAL2     51    PLEEA    H3S     37     0.090000     1.0080   ; qtot  0.000
    38       CTL2     51    PLEEA    C24     38    -0.180000    12.0110   ; qtot -0.180
    39       HAL2     51    PLEEA    H4R     39     0.090000     1.0080   ; qtot -0.090
    40       HAL2     51    PLEEA    H4S     40     0.090000     1.0080   ; qtot  0.000
    41       CEL1     51    PLEEA    C25     41    -0.150000    12.0110   ; qtot -0.150
    42       HEL1     51    PLEEA    H5R     42     0.150000     1.0080   ; qtot  0.000
    43       CEL1     51    PLEEA    C26     43    -0.150000    12.0110   ; qtot -0.150
    44       HEL1     51    PLEEA    H6R     44     0.150000     1.0080   ; qtot  0.000
    45       CTL2     51    PLEEA    C27     45    -0.180000    12.0110   ; qtot -0.180
    46       HAL2     51    PLEEA    H7R     46     0.090000     1.0080   ; qtot -0.090
    47       HAL2     51    PLEEA    H7S     47     0.090000     1.0080   ; qtot  0.000
    48       CEL1     51    PLEEA    C28     48    -0.150000    12.0110   ; qtot -0.150
    49       HEL1     51    PLEEA    H8R     49     0.150000     1.0080   ; qtot  0.000
    50       CEL1     51    PLEEA    C29     50    -0.150000    12.0110   ; qtot -0.150
    51       HEL1     51    PLEEA    H9R     51     0.150000     1.0080   ; qtot  0.000
    52       CTL2     51    PLEEA   C210     52    -0.180000    12.0110   ; qtot -0.180
    53       HAL2     51    PLEEA   H10R     53     0.090000     1.0080   ; qtot -0.090
    54       HAL2     51    PLEEA   H10S     54     0.090000     1.0080   ; qtot  0.000
    55       CEL1     51    PLEEA   C211     55    -0.150000    12.0110   ; qtot -0.150
    56       HEL1     51    PLEEA   H11R     56     0.150000     1.0080   ; qtot  0.000
    57       CEL1     51    PLEEA   C212     57    -0.150000    12.0110   ; qtot -0.150
    58       HEL1     51    PLEEA   H12R     58     0.150000     1.0080   ; qtot  0.000
    59       CTL2     51    PLEEA   C213     59    -0.180000    12.0110   ; qtot -0.180
    60       HAL2     51    PLEEA   H13R     60     0.090000     1.0080   ; qtot -0.090
    61       HAL2     51    PLEEA   H13S     61     0.090000     1.0080   ; qtot  0.000
    62       CEL1     51    PLEEA   C214     62    -0.150000    12.0110   ; qtot -0.150
    63       HEL1     51    PLEEA   H14R     63     0.150000     1.0080   ; qtot  0.000
    64       CEL1     51    PLEEA   C215     64    -0.150000    12.0110   ; qtot -0.150
    65       HEL1     51    PLEEA   H15R     65     0.150000     1.0080   ; qtot  0.000
    66       CTL2     51    PLEEA   C216     66    -0.180000    12.0110   ; qtot -0.180
    67       HAL2     51    PLEEA   H16R     67     0.090000     1.0080   ; qtot -0.090
    68       HAL2     51    PLEEA   H16S     68     0.090000     1.0080   ; qtot  0.000
    69       CTL2     51    PLEEA   C217     69    -0.180000    12.0110   ; qtot -0.180
    70       HAL2     51    PLEEA   H17R     70     0.090000     1.0080   ; qtot -0.090
    71       HAL2     51    PLEEA   H17S     71     0.090000     1.0080   ; qtot  0.000
    72       CTL2     51    PLEEA   C218     72    -0.180000    12.0110   ; qtot -0.180
    73       HAL2     51    PLEEA   H18R     73     0.090000     1.0080   ; qtot -0.090
    74       HAL2     51    PLEEA   H18S     74     0.090000     1.0080   ; qtot  0.000
    75       CTL2     51    PLEEA   C219     75    -0.180000    12.0110   ; qtot -0.180
    76       HAL2     51    PLEEA   H19R     76     0.090000     1.0080   ; qtot -0.090
    77       HAL2     51    PLEEA   H19S     77     0.090000     1.0080   ; qtot  0.000
    78       CTL3     51    PLEEA   C220     78    -0.270000    12.0110   ; qtot -0.270
    79       HAL3     51    PLEEA   H20R     79     0.090000     1.0080   ; qtot -0.180
    80       HAL3     51    PLEEA   H20S     80     0.090000     1.0080   ; qtot -0.090
    81       HAL3     51    PLEEA   H20T     81     0.090000     1.0080   ; qtot  0.000
    82       CTL2     51    PLEEA    C33     82    -0.180000    12.0110   ; qtot -0.180
    83       HAL2     51    PLEEA    H3X     83     0.090000     1.0080   ; qtot -0.090
    84       HAL2     51    PLEEA    H3Y     84     0.090000     1.0080   ; qtot  0.000
    85       CTL2     51    PLEEA    C34     85    -0.180000    12.0110   ; qtot -0.180
    86       HAL2     51    PLEEA    H4X     86     0.090000     1.0080   ; qtot -0.090
    87       HAL2     51    PLEEA    H4Y     87     0.090000     1.0080   ; qtot  0.000
    88       CTL2     51    PLEEA    C35     88    -0.180000    12.0110   ; qtot -0.180
    89       HAL2     51    PLEEA    H5X     89     0.090000     1.0080   ; qtot -0.090
    90       HAL2     51    PLEEA    H5Y     90     0.090000     1.0080   ; qtot  0.000
    91       CTL2     51    PLEEA    C36     91    -0.180000    12.0110   ; qtot -0.180
    92       HAL2     51    PLEEA    H6X     92     0.090000     1.0080   ; qtot -0.090
    93       HAL2     51    PLEEA    H6Y     93     0.090000     1.0080   ; qtot  0.000
    94       CTL2     51    PLEEA    C37     94    -0.180000    12.0110   ; qtot -0.180
    95       HAL2     51    PLEEA    H7X     95     0.090000     1.0080   ; qtot -0.090
    96       HAL2     51    PLEEA    H7Y     96     0.090000     1.0080   ; qtot  0.000
    97       CTL2     51    PLEEA    C38     97    -0.180000    12.0110   ; qtot -0.180
    98       HAL2     51    PLEEA    H8X     98     0.090000     1.0080   ; qtot -0.090
    99       HAL2     51    PLEEA    H8Y     99     0.090000     1.0080   ; qtot  0.000
   100       CTL2     51    PLEEA    C39    100    -0.180000    12.0110   ; qtot -0.180
   101       HAL2     51    PLEEA    H9X    101     0.090000     1.0080   ; qtot -0.090
   102       HAL2     51    PLEEA    H9Y    102     0.090000     1.0080   ; qtot  0.000
   103       CTL2     51    PLEEA   C310    103    -0.180000    12.0110   ; qtot -0.180
   104       HAL2     51    PLEEA   H10X    104     0.090000     1.0080   ; qtot -0.090
   105       HAL2     51    PLEEA   H10Y    105     0.090000     1.0080   ; qtot  0.000
   106       CTL2     51    PLEEA   C311    106    -0.180000    12.0110   ; qtot -0.180
   107       HAL2     51    PLEEA   H11X    107     0.090000     1.0080   ; qtot -0.090
   108       HAL2     51    PLEEA   H11Y    108     0.090000     1.0080   ; qtot  0.000
   109       CTL2     51    PLEEA   C312    109    -0.180000    12.0110   ; qtot -0.180
   110       HAL2     51    PLEEA   H12X    110     0.090000     1.0080   ; qtot -0.090
   111       HAL2     51    PLEEA   H12Y    111     0.090000     1.0080   ; qtot  0.000
   112       CEL1     51    PLEEA   C313    112    -0.150000    12.0110   ; qtot -0.150
   113       HEL1     51    PLEEA   H13X    113     0.150000     1.0080   ; qtot  0.000
   114       CEL1     51    PLEEA   C314    114    -0.150000    12.0110   ; qtot -0.150
   115       HEL1     51    PLEEA   H14X    115     0.150000     1.0080   ; qtot  0.000
   116       CTL2     51    PLEEA   C315    116    -0.180000    12.0110   ; qtot -0.180
   117       HAL2     51    PLEEA   H15X    117     0.090000     1.0080   ; qtot -0.090
   118       HAL2     51    PLEEA   H15Y    118     0.090000     1.0080   ; qtot  0.000
   119       CTL2     51    PLEEA   C316    119    -0.180000    12.0110   ; qtot -0.180
   120       HAL2     51    PLEEA   H16X    120     0.090000     1.0080   ; qtot -0.090
   121       HAL2     51    PLEEA   H16Y    121     0.090000     1.0080   ; qtot  0.000
   122       CTL2     51    PLEEA   C317    122    -0.180000    12.0110   ; qtot -0.180
   123       HAL2     51    PLEEA   H17X    123     0.090000     1.0080   ; qtot -0.090
   124       HAL2     51    PLEEA   H17Y    124     0.090000     1.0080   ; qtot  0.000
   125       CTL2     51    PLEEA   C318    125    -0.180000    12.0110   ; qtot -0.180
   126       HAL2     51    PLEEA   H18X    126     0.090000     1.0080   ; qtot -0.090
   127       HAL2     51    PLEEA   H18Y    127     0.090000     1.0080   ; qtot  0.000
   128       CTL2     51    PLEEA   C319    128    -0.180000    12.0110   ; qtot -0.180
   129       HAL2     51    PLEEA   H19X    129     0.090000     1.0080   ; qtot -0.090
   130       HAL2     51    PLEEA   H19Y    130     0.090000     1.0080   ; qtot  0.000
   131       CTL2     51    PLEEA   C320    131    -0.180000    12.0110   ; qtot -0.180
   132       HAL2     51    PLEEA   H20X    132     0.090000     1.0080   ; qtot -0.090
   133       HAL2     51    PLEEA   H20Y    133     0.090000     1.0080   ; qtot  0.000
   134       CTL2     51    PLEEA   C321    134    -0.180000    12.0110   ; qtot -0.180
   135       HAL2     51    PLEEA   H21X    135     0.090000     1.0080   ; qtot -0.090
   136       HAL2     51    PLEEA   H21Y    136     0.090000     1.0080   ; qtot  0.000
   137       CTL3     51    PLEEA   C322    137    -0.270000    12.0110   ; qtot -0.270
   138       HAL3     51    PLEEA   H22X    138     0.090000     1.0080   ; qtot -0.180
   139       HAL3     51    PLEEA   H22Y    139     0.090000     1.0080   ; qtot -0.090
   140       HAL3     51    PLEEA   H22Z    140     0.090000     1.0080   ; qtot  0.000

[ bonds ]
; ai	aj	funct	b0	Kb
    1     2     1
    1     3     1
    1     4     1
    1     5     1
    5     6     1
    5     7     1
    5     8     1
    8     9     1
    8    10     1
    8    14     1
   11    12     1
   11    13     1
   14    11     1
   11    15     1
   16    15     1
   16    17     1
   16    18     1
   16    19     1
   19    20     1
   19    21     1
   19    27     1
   21    22     1
   22    23     1
   22    24     1
   24    25     1
   24    26     1
   24    35     1
   27    28     1
   27    29     1
   27    30     1
   30    31     1
   31    32     1
   31    33     1
   33    34     1
   33    82     1
   35    36     1
   35    37     1
   35    38     1
   38    39     1
   38    40     1
   38    41     1
   41    42     1
   41    43     1
   43    44     1
   43    45     1
   45    46     1
   45    47     1
   45    48     1
   48    49     1
   48    50     1
   50    51     1
   50    52     1
   52    53     1
   52    54     1
   52    55     1
   55    56     1
   55    57     1
   57    58     1
   57    59     1
   59    60     1
   59    61     1
   59    62     1
   62    63     1
   62    64     1
   64    65     1
   64    66     1
   66    67     1
   66    68     1
   66    69     1
   69    70     1
   69    71     1
   69    72     1
   72    73     1
   72    74     1
   72    75     1
   75    76     1
   75    77     1
   75    78     1
   78    79     1
   78    80     1
   78    81     1
   82    83     1
   82    84     1
   82    85     1
   85    86     1
   85    87     1
   85    88     1
   88    89     1
   88    90     1
   88    91     1
   91    92     1
   91    93     1
   91    94     1
   94    95     1
   94    96     1
   94    97     1
   97    98     1
   97    99     1
   97   100     1
  100   101     1
  100   102     1
  100   103     1
  103   104     1
  103   105     1
  103   106     1
  106   107     1
  106   108     1
  106   109     1
  109   110     1
  109   111     1
  109   112     1
  112   113     1
  112   114     1
  114   115     1
  114   116     1
  116   117     1
  116   118     1
  116   119     1
  119   120     1
  119   121     1
  119   122     1
  122   123     1
  122   124     1
  122   125     1
  125   126     1
  125   127     1
  125   128     1
  128   129     1
  128   130     1
  128   131     1
  131   132     1
  131   133     1
  131   134     1
  134   135     1
  134   136     1
  134   137     1
  137   138     1
  137   139     1
  137   140     1

[ pairs ]
; ai	aj	funct	c6	c12 or
; ai	aj	funct	fudgeQQ	q1	q2	c6	c12
    1     9     1
    1    10     1
    1    14     1
    2     6     1
    2     7     1
    2     8     1
    3     6     1
    3     7     1
    3     8     1
    4     6     1
    4     7     1
    4     8     1
    5    11     1
    6     9     1
    6    10     1
    6    14     1
    7     9     1
    7    10     1
    7    14     1
    8    12     1
    8    13     1
    8    15     1
    9    11     1
   10    11     1
   11    17     1
   11    18     1
   11    19     1
   12    16     1
   13    16     1
   14    16     1
   15    20     1
   15    21     1
   15    27     1
   16    22     1
   16    28     1
   16    29     1
   16    30     1
   17    20     1
   17    21     1
   17    27     1
   18    20     1
   18    21     1
   18    27     1
   19    23     1
   19    24     1
   19    31     1
   20    22     1
   20    28     1
   20    29     1
   20    30     1
   21    25     1
   21    26     1
   21    28     1
   21    29     1
   21    30     1
   21    35     1
   22    27     1
   22    36     1
   22    37     1
   22    38     1
   23    25     1
   23    26     1
   23    35     1
   24    39     1
   24    40     1
   24    41     1
   25    36     1
   25    37     1
   25    38     1
   26    36     1
   26    37     1
   26    38     1
   27    32     1
   27    33     1
   28    31     1
   29    31     1
   30    34     1
   30    82     1
   31    83     1
   31    84     1
   31    85     1
   32    34     1
   32    82     1
   33    86     1
   33    87     1
   33    88     1
   34    83     1
   34    84     1
   34    85     1
   35    42     1
   35    43     1
   36    39     1
   36    40     1
   36    41     1
   37    39     1
   37    40     1
   37    41     1
   38    44     1
   38    45     1
   39    42     1
   39    43     1
   40    42     1
   40    43     1
   41    46     1
   41    47     1
   41    48     1
   42    44     1
   42    45     1
   43    49     1
   43    50     1
   44    46     1
   44    47     1
   44    48     1
   45    51     1
   45    52     1
   46    49     1
   46    50     1
   47    49     1
   47    50     1
   48    53     1
   48    54     1
   48    55     1
   49    51     1
   49    52     1
   50    56     1
   50    57     1
   51    53     1
   51    54     1
   51    55     1
   52    58     1
   52    59     1
   53    56     1
   53    57     1
   54    56     1
   54    57     1
   55    60     1
   55    61     1
   55    62     1
   56    58     1
   56    59     1
   57    63     1
   57    64     1
   58    60     1
   58    61     1
   58    62     1
   59    65     1
   59    66     1
   60    63     1
   60    64     1
   61    63     1
   61    64     1
   62    67     1
   62    68     1
   62    69     1
   63    65     1
   63    66     1
   64    70     1
   64    71     1
   64    72     1
   65    67     1
   65    68     1
   65    69     1
   66    73     1
   66    74     1
   66    75     1
   67    70     1
   67    71     1
   67    72     1
   68    70     1
   68    71     1
   68    72     1
   69    76     1
   69    77     1
   69    78     1
   70    73     1
   70    74     1
   70    75     1
   71    73     1
   71    74     1
   71    75     1
   72    79     1
   72    80     1
   72    81     1
   73    76     1
   73    77     1
   73    78     1
   74    76     1
   74    77     1
   74    78     1
   76    79     1
   76    80     1
   76    81     1
   77    79     1
   77    80     1
   77    81     1
   82    89     1
   82    90     1
   82    91     1
   83    86     1
   83    87     1
   83    88     1
   84    86     1
   84    87     1
   84    88     1
   85    92     1
   85    93     1
   85    94     1
   86    89     1
   86    90     1
   86    91     1
   87    89     1
   87    90     1
   87    91     1
   88    95     1
   88    96     1
   88    97     1
   89    92     1
   89    93     1
   89    94     1
   90    92     1
   90    93     1
   90    94     1
   91    98     1
   91    99     1
   91   100     1
   92    95     1
   92    96     1
   92    97     1
   93    95     1
   93    96     1
   93    97     1
   94   101     1
   94   102     1
   94   103     1
   95    98     1
   95    99     1
   95   100     1
   96    98     1
   96    99     1
   96   100     1
   97   104     1
   97   105     1
   97   106     1
   98   101     1
   98   102     1
   98   103     1
   99   101     1
   99   102     1
   99   103     1
  100   107     1
  100   108     1
  100   109     1
  101   104     1
  101   105     1
  101   106     1
  102   104     1
  102   105     1
  102   106     1
  103   110     1
  103   111     1
  103   112     1
  104   107     1
  104   108     1
  104   109     1
  105   107     1
  105   108     1
  105   109     1
  106   113     1
  106   114     1
  107   110     1
  107   111     1
  107   112     1
  108   110     1
  108   111     1
  108   112     1
  109   115     1
  109   116     1
  110   113     1
  110   114     1
  111   113     1
  111   114     1
  112   117     1
  112   118     1
  112   119     1
  113   115     1
  113   116     1
  114   120     1
  114   121     1
  114   122     1
  115   117     1
  115   118     1
  115   119     1
  116   123     1
  116   124     1
  116   125     1
  117   120     1
  117   121     1
  117   122     1
  118   120     1
  118   121     1
  118   122     1
  119   126     1
  119   127     1
  119   128     1
  120   123     1
  120   124     1
  120   125     1
  121   123     1
  121   124     1
  121   125     1
  122   129     1
  122   130     1
  122   131     1
  123   126     1
  123   127     1
  123   128     1
  124   126     1
  124   127     1
  124   128     1
  125   132     1
  125   133     1
  125   134     1
  126   129     1
  126   130     1
  126   131     1
  127   129     1
  127   130     1
  127   131     1
  128   135     1
  128   136     1
  128   137     1
  129   132     1
  129   133     1
  129   134     1
  130   132     1
  130   133     1
  130   134     1
  131   138     1
  131   139     1
  131   140     1
  132   135     1
  132   136     1
  132   137     1
  133   135     1
  133   136     1
  133   137     1
  135   138     1
  135   139     1
  135   140     1
  136   138     1
  136   139     1
  136   140     1

[ angles ] 
; ai	aj	ak	funct	th0	cth	S0	Kub
    2     1     3     5
    2     1     4     5
    2     1     5     5
    3     1     4     5
    3     1     5     5
    4     1     5     5
    1     5     6     5
    1     5     7     5
    1     5     8     5
    6     5     7     5
    6     5     8     5
    7     5     8     5
    5     8     9     5
    5     8    10     5
    5     8    14     5
    9     8    10     5
    9     8    14     5
   10     8    14     5
   12    11    13     5
   12    11    14     5
   12    11    15     5
   13    11    14     5
   13    11    15     5
   14    11    15     5
    8    14    11     5
   11    15    16     5
   15    16    17     5
   15    16    18     5
   15    16    19     5
   17    16    18     5
   17    16    19     5
   18    16    19     5
   16    19    20     5
   16    19    21     5
   16    19    27     5
   20    19    21     5
   20    19    27     5
   21    19    27     5
   19    21    22     5
   21    22    23     5
   21    22    24     5
   23    22    24     5
   22    24    25     5
   22    24    26     5
   22    24    35     5
   25    24    26     5
   25    24    35     5
   26    24    35     5
   19    27    28     5
   19    27    29     5
   19    27    30     5
   28    27    29     5
   28    27    30     5
   29    27    30     5
   27    30    31     5
   30    31    32     5
   30    31    33     5
   32    31    33     5
   31    33    34     5
   31    33    82     5
   34    33    82     5
   24    35    36     5
   24    35    37     5
   24    35    38     5
   36    35    37     5
   36    35    38     5
   37    35    38     5
   35    38    39     5
   35    38    40     5
   35    38    41     5
   39    38    40     5
   39    38    41     5
   40    38    41     5
   38    41    42     5
   38    41    43     5
   42    41    43     5
   41    43    44     5
   41    43    45     5
   44    43    45     5
   43    45    46     5
   43    45    47     5
   43    45    48     5
   46    45    47     5
   46    45    48     5
   47    45    48     5
   45    48    49     5
   45    48    50     5
   49    48    50     5
   48    50    51     5
   48    50    52     5
   51    50    52     5
   50    52    53     5
   50    52    54     5
   50    52    55     5
   53    52    54     5
   53    52    55     5
   54    52    55     5
   52    55    56     5
   52    55    57     5
   56    55    57     5
   55    57    58     5
   55    57    59     5
   58    57    59     5
   57    59    60     5
   57    59    61     5
   57    59    62     5
   60    59    61     5
   60    59    62     5
   61    59    62     5
   59    62    63     5
   59    62    64     5
   63    62    64     5
   62    64    65     5
   62    64    66     5
   65    64    66     5
   64    66    67     5
   64    66    68     5
   64    66    69     5
   67    66    68     5
   67    66    69     5
   68    66    69     5
   66    69    70     5
   66    69    71     5
   66    69    72     5
   70    69    71     5
   70    69    72     5
   71    69    72     5
   69    72    73     5
   69    72    74     5
   69    72    75     5
   73    72    74     5
   73    72    75     5
   74    72    75     5
   72    75    76     5
   72    75    77     5
   72    75    78     5
   76    75    77     5
   76    75    78     5
   77    75    78     5
   75    78    79     5
   75    78    80     5
   75    78    81     5
   79    78    80     5
   79    78    81     5
   80    78    81     5
   33    82    83     5
   33    82    84     5
   33    82    85     5
   83    82    84     5
   83    82    85     5
   84    82    85     5
   82    85    86     5
   82    85    87     5
   82    85    88     5
   86    85    87     5
   86    85    88     5
   87    85    88     5
   85    88    89     5
   85    88    90     5
   85    88    91     5
   89    88    90     5
   89    88    91     5
   90    88    91     5
   88    91    92     5
   88    91    93     5
   88    91    94     5
   92    91    93     5
   92    91    94     5
   93    91    94     5
   91    94    95     5
   91    94    96     5
   91    94    97     5
   95    94    96     5
   95    94    97     5
   96    94    97     5
   94    97    98     5
   94    97    99     5
   94    97   100     5
   98    97    99     5
   98    97   100     5
   99    97   100     5
   97   100   101     5
   97   100   102     5
   97   100   103     5
  101   100   102     5
  101   100   103     5
  102   100   103     5
  100   103   104     5
  100   103   105     5
  100   103   106     5
  104   103   105     5
  104   103   106     5
  105   103   106     5
  103   106   107     5
  103   106   108     5
  103   106   109     5
  107   106   108     5
  107   106   109     5
  108   106   109     5
  106   109   110     5
  106   109   111     5
  106   109   112     5
  110   109   111     5
  110   109   112     5
  111   109   112     5
  109   112   113     5
  109   112   114     5
  113   112   114     5
  112   114   115     5
  112   114   116     5
  115   114   116     5
  114   116   117     5
  114   116   118     5
  114   116   119     5
  117   116   118     5
  117   116   119     5
  118   116   119     5
  116   119   120     5
  116   119   121     5
  116   119   122     5
  120   119   121     5
  120   119   122     5
  121   119   122     5
  119   122   123     5
  119   122   124     5
  119   122   125     5
  123   122   124     5
  123   122   125     5
  124   122   125     5
  122   125   126     5
  122   125   127     5
  122   125   128     5
  126   125   127     5
  126   125   128     5
  127   125   128     5
  125   128   129     5
  125   128   130     5
  125   128   131     5
  129   128   130     5
  129   128   131     5
  130   128   131     5
  128   131   132     5
  128   131   133     5
  128   131   134     5
  132   131   133     5
  132   131   134     5
  133   131   134     5
  131   134   135     5
  131   134   136     5
  131   134   137     5
  135   134   136     5
  135   134   137     5
  136   134   137     5
  134   137   138     5
  134   137   139     5
  134   137   140     5
  138   137   139     5
  138   137   140     5
  139   137   140     5

[ dihedrals ]
; ai	aj	ak	al	funct	phi0	cp	mult
    2     1     5     6     9
    2     1     5     7     9
    2     1     5     8     9
    3     1     5     6     9
    3     1     5     7     9
    3     1     5     8     9
    4     1     5     6     9
    4     1     5     7     9
    4     1     5     8     9
    1     5     8     9     9
    1     5     8    10     9
    1     5     8    14     9
    6     5     8     9     9
    6     5     8    10     9
    6     5     8    14     9
    7     5     8     9     9
    7     5     8    10     9
    7     5     8    14     9
    5     8    14    11     9
    9     8    14    11     9
   10     8    14    11     9
   12    11    15    16     9
   13    11    15    16     9
   14    11    15    16     9
    8    14    11    12     9
    8    14    11    13     9
    8    14    11    15     9
   11    15    16    17     9
   11    15    16    18     9
   11    15    16    19     9
   15    16    19    20     9
   15    16    19    21     9
   15    16    19    27     9
   17    16    19    20     9
   17    16    19    21     9
   17    16    19    27     9
   18    16    19    20     9
   18    16    19    21     9
   18    16    19    27     9
   16    19    21    22     9
   20    19    21    22     9
   16    19    27    28     9
   16    19    27    29     9
   16    19    27    30     9
   20    19    27    28     9
   20    19    27    29     9
   20    19    27    30     9
   21    19    27    28     9
   21    19    27    29     9
   21    19    27    30     9
   22    21    19    27     9
   19    21    22    23     9
   19    21    22    24     9
   21    22    24    25     9
   21    22    24    26     9
   21    22    24    35     9
   23    22    24    25     9
   23    22    24    26     9
   23    22    24    35     9
   22    24    35    36     9
   22    24    35    37     9
   22    24    35    38     9
   25    24    35    36     9
   25    24    35    37     9
   25    24    35    38     9
   26    24    35    36     9
   26    24    35    37     9
   26    24    35    38     9
   19    27    30    31     9
   28    27    30    31     9
   29    27    30    31     9
   27    30    31    32     9
   27    30    31    33     9
   30    31    33    34     9
   30    31    33    82     9
   32    31    33    34     9
   32    31    33    82     9
   31    33    82    83     9
   31    33    82    84     9
   31    33    82    85     9
   34    33    82    83     9
   34    33    82    84     9
   34    33    82    85     9
   24    35    38    39     9
   24    35    38    40     9
   24    35    38    41     9
   36    35    38    39     9
   36    35    38    40     9
   36    35    38    41     9
   37    35    38    39     9
   37    35    38    40     9
   37    35    38    41     9
   35    38    41    42     9
   35    38    41    43     9
   39    38    41    42     9
   39    38    41    43     9
   40    38    41    42     9
   40    38    41    43     9
   38    41    43    44     9
   38    41    43    45     9
   42    41    43    44     9
   42    41    43    45     9
   41    43    45    46     9
   41    43    45    47     9
   41    43    45    48     9
   44    43    45    46     9
   44    43    45    47     9
   44    43    45    48     9
   43    45    48    49     9
   43    45    48    50     9
   46    45    48    49     9
   46    45    48    50     9
   47    45    48    49     9
   47    45    48    50     9
   45    48    50    51     9
   45    48    50    52     9
   49    48    50    51     9
   49    48    50    52     9
   48    50    52    53     9
   48    50    52    54     9
   48    50    52    55     9
   51    50    52    53     9
   51    50    52    54     9
   51    50    52    55     9
   50    52    55    56     9
   50    52    55    57     9
   53    52    55    56     9
   53    52    55    57     9
   54    52    55    56     9
   54    52    55    57     9
   52    55    57    58     9
   52    55    57    59     9
   56    55    57    58     9
   56    55    57    59     9
   55    57    59    60     9
   55    57    59    61     9
   55    57    59    62     9
   58    57    59    60     9
   58    57    59    61     9
   58    57    59    62     9
   57    59    62    63     9
   57    59    62    64     9
   60    59    62    63     9
   60    59    62    64     9
   61    59    62    63     9
   61    59    62    64     9
   59    62    64    65     9
   59    62    64    66     9
   63    62    64    65     9
   63    62    64    66     9
   62    64    66    67     9
   62    64    66    68     9
   62    64    66    69     9
   65    64    66    67     9
   65    64    66    68     9
   65    64    66    69     9
   64    66    69    70     9
   64    66    69    71     9
   64    66    69    72     9
   67    66    69    70     9
   67    66    69    71     9
   67    66    69    72     9
   68    66    69    70     9
   68    66    69    71     9
   68    66    69    72     9
   66    69    72    73     9
   66    69    72    74     9
   66    69    72    75     9
   70    69    72    73     9
   70    69    72    74     9
   70    69    72    75     9
   71    69    72    73     9
   71    69    72    74     9
   71    69    72    75     9
   69    72    75    76     9
   69    72    75    77     9
   69    72    75    78     9
   73    72    75    76     9
   73    72    75    77     9
   73    72    75    78     9
   74    72    75    76     9
   74    72    75    77     9
   74    72    75    78     9
   72    75    78    79     9
   72    75    78    80     9
   72    75    78    81     9
   76    75    78    79     9
   76    75    78    80     9
   76    75    78    81     9
   77    75    78    79     9
   77    75    78    80     9
   77    75    78    81     9
   33    82    85    86     9
   33    82    85    87     9
   33    82    85    88     9
   83    82    85    86     9
   83    82    85    87     9
   83    82    85    88     9
   84    82    85    86     9
   84    82    85    87     9
   84    82    85    88     9
   82    85    88    89     9
   82    85    88    90     9
   82    85    88    91     9
   86    85    88    89     9
   86    85    88    90     9
   86    85    88    91     9
   87    85    88    89     9
   87    85    88    90     9
   87    85    88    91     9
   85    88    91    92     9
   85    88    91    93     9
   85    88    91    94     9
   89    88    91    92     9
   89    88    91    93     9
   89    88    91    94     9
   90    88    91    92     9
   90    88    91    93     9
   90    88    91    94     9
   88    91    94    95     9
   88    91    94    96     9
   88    91    94    97     9
   92    91    94    95     9
   92    91    94    96     9
   92    91    94    97     9
   93    91    94    95     9
   93    91    94    96     9
   93    91    94    97     9
   91    94    97    98     9
   91    94    97    99     9
   91    94    97   100     9
   95    94    97    98     9
   95    94    97    99     9
   95    94    97   100     9
   96    94    97    98     9
   96    94    97    99     9
   96    94    97   100     9
   94    97   100   101     9
   94    97   100   102     9
   94    97   100   103     9
   98    97   100   101     9
   98    97   100   102     9
   98    97   100   103     9
   99    97   100   101     9
   99    97   100   102     9
   99    97   100   103     9
   97   100   103   104     9
   97   100   103   105     9
   97   100   103   106     9
  101   100   103   104     9
  101   100   103   105     9
  101   100   103   106     9
  102   100   103   104     9
  102   100   103   105     9
  102   100   103   106     9
  100   103   106   107     9
  100   103   106   108     9
  100   103   106   109     9
  104   103   106   107     9
  104   103   106   108     9
  104   103   106   109     9
  105   103   106   107     9
  105   103   106   108     9
  105   103   106   109     9
  103   106   109   110     9
  103   106   109   111     9
  103   106   109   112     9
  107   106   109   110     9
  107   106   109   111     9
  107   106   109   112     9
  108   106   109   110     9
  108   106   109   111     9
  108   106   109   112     9
  106   109   112   113     9
  106   109   112   114     9
  110   109   112   113     9
  110   109   112   114     9
  111   109   112   113     9
  111   109   112   114     9
  109   112   114   115     9
  109   112   114   116     9
  113   112   114   115     9
  113   112   114   116     9
  112   114   116   117     9
  112   114   116   118     9
  112   114   116   119     9
  115   114   116   117     9
  115   114   116   118     9
  115   114   116   119     9
  114   116   119   120     9
  114   116   119   121     9
  114   116   119   122     9
  117   116   119   120     9
  117   116   119   121     9
  117   116   119   122     9
  118   116   119   120     9
  118   116   119   121     9
  118   116   119   122     9
  116   119   122   123     9
  116   119   122   124     9
  116   119   122   125     9
  120   119   122   123     9
  120   119   122   124     9
  120   119   122   125     9
  121   119   122   123     9
  121   119   122   124     9
  121   119   122   125     9
  119   122   125   126     9
  119   122   125   127     9
  119   122   125   128     9
  123   122   125   126     9
  123   122   125   127     9
  123   122   125   128     9
  124   122   125   126     9
  124   122   125   127     9
  124   122   125   128     9
  122   125   128   129     9
  122   125   128   130     9
  122   125   128   131     9
  126   125   128   129     9
  126   125   128   130     9
  126   125   128   131     9
  127   125   128   129     9
  127   125   128   130     9
  127   125   128   131     9
  125   128   131   132     9
  125   128   131   133     9
  125   128   131   134     9
  129   128   131   132     9
  129   128   131   133     9
  129   128   131   134     9
  130   128   131   132     9
  130   128   131   133     9
  130   128   131   134     9
  128   131   134   135     9
  128   131   134   136     9
  128   131   134   137     9
  132   131   134   135     9
  132   131   134   136     9
  132   131   134   137     9
  133   131   134   135     9
  133   131   134   136     9
  133   131   134   137     9
  131   134   137   138     9
  131   134   137   139     9
  131   134   137   140     9
  135   134   137   138     9
  135   134   137   139     9
  135   134   137   140     9
  136   134   137   138     9
  136   134   137   139     9
  136   134   137   140     9

[ dihedrals ]
; ai	aj	ak	al	funct	q0	cq
   22    21    24    23     2

#ifdef POSRES
[ position_restraints ]
   11     1     0.0             0.0            POSRES_FC_LIPID
#endif

#ifdef DIHRES
[ dihedral_restraints ]
   16    27    19    21     1   -120.0      2.5       DIHRES_FC
   30    31    33    82     1      0.0      0.0       DIHRES_FC
   38    41    43    45     1      0.0      0.0       DIHRES_FC
   45    48    50    52     1      0.0      0.0       DIHRES_FC
   52    55    57    59     1      0.0      0.0       DIHRES_FC
   59    62    64    66     1      0.0      0.0       DIHRES_FC
  109   112   114   116     1      0.0      0.0       DIHRES_FC
#endif
