;;
;; Generated by CHARMM-GUI FF-Converter
;;
;; Correspondance:
;; jul316@lehigh.edu or wonpil@lehigh.edu
;;
;; GROMACS topology file for PLEPAO
;;


[ moleculetype ]
; name	nrexcl
PLEPAO	     3

[ atoms ]
; nr	type	resnr	residu	atom	cgnr	charge	mass
     1       NH3L     34   PLEPAO      N      1    -0.300000    14.0070   ; qtot -0.300
     2        HCL     34   PLEPAO    HN1      2     0.330000     1.0080   ; qtot  0.030
     3        HCL     34   PLEPAO    HN2      3     0.330000     1.0080   ; qtot  0.360
     4        HCL     34   PLEPAO    HN3      4     0.330000     1.0080   ; qtot  0.690
     5       CTL2     34   PLEPAO    C12      5     0.130000    12.0110   ; qtot  0.820
     6       HAL2     34   PLEPAO   H12A      6     0.090000     1.0080   ; qtot  0.910
     7       HAL2     34   PLEPAO   H12B      7     0.090000     1.0080   ; qtot  1.000
     8       CTL2     34   PLEPAO    C11      8    -0.080000    12.0110   ; qtot  0.920
     9       HAL2     34   PLEPAO   H11A      9     0.090000     1.0080   ; qtot  1.010
    10       HAL2     34   PLEPAO   H11B     10     0.090000     1.0080   ; qtot  1.100
    11         PL     34   PLEPAO      P     11     1.500000    30.9740   ; qtot  2.600
    12        O2L     34   PLEPAO    O13     12    -0.780000    15.9994   ; qtot  1.820
    13        O2L     34   PLEPAO    O14     13    -0.780000    15.9994   ; qtot  1.040
    14       OSLP     34   PLEPAO    O11     14    -0.570000    15.9994   ; qtot  0.470
    15       OSLP     34   PLEPAO    O12     15    -0.570000    15.9994   ; qtot -0.100
    16       CTL2     34   PLEPAO     C1     16    -0.080000    12.0110   ; qtot -0.180
    17       HAL2     34   PLEPAO     HA     17     0.090000     1.0080   ; qtot -0.090
    18       HAL2     34   PLEPAO     HB     18     0.090000     1.0080   ; qtot  0.000
    19       CTL1     34   PLEPAO     C2     19     0.170000    12.0110   ; qtot  0.170
    20       HAL1     34   PLEPAO     HS     20     0.090000     1.0080   ; qtot  0.260
    21        OSL     34   PLEPAO    O21     21    -0.490000    15.9994   ; qtot -0.230
    22         CL     34   PLEPAO    C21     22     0.900000    12.0110   ; qtot  0.670
    23        OBL     34   PLEPAO    O22     23    -0.630000    15.9994   ; qtot  0.040
    24       CTL2     34   PLEPAO    C22     24    -0.220000    12.0110   ; qtot -0.180
    25       HAL2     34   PLEPAO    H2R     25     0.090000     1.0080   ; qtot -0.090
    26       HAL2     34   PLEPAO    H2S     26     0.090000     1.0080   ; qtot  0.000
    27       CTL2     34   PLEPAO     C3     27     0.080000    12.0110   ; qtot  0.080
    28       HAL2     34   PLEPAO     HX     28     0.020000     1.0080   ; qtot  0.100
    29       HAL2     34   PLEPAO     HY     29     0.020000     1.0080   ; qtot  0.120
    30      OG301     34   PLEPAO    O31     30    -0.560000    15.9994   ; qtot -0.440
    31       CTL2     34   PLEPAO    C31     31     0.400000    12.0110   ; qtot -0.040
    32       HAL2     34   PLEPAO    H1X     32     0.020000     1.0080   ; qtot -0.020
    33       HAL2     34   PLEPAO    H1Y     33     0.020000     1.0080   ; qtot  0.000
    34       CTL2     34   PLEPAO    C32     34    -0.180000    12.0110   ; qtot -0.180
    35       HAL2     34   PLEPAO    H2X     35     0.090000     1.0080   ; qtot -0.090
    36       HAL2     34   PLEPAO    H2Y     36     0.090000     1.0080   ; qtot  0.000
    37       CTL2     34   PLEPAO    C23     37    -0.180000    12.0110   ; qtot -0.180
    38       HAL2     34   PLEPAO    H3R     38     0.090000     1.0080   ; qtot -0.090
    39       HAL2     34   PLEPAO    H3S     39     0.090000     1.0080   ; qtot  0.000
    40       CTL2     34   PLEPAO    C24     40    -0.180000    12.0110   ; qtot -0.180
    41       HAL2     34   PLEPAO    H4R     41     0.090000     1.0080   ; qtot -0.090
    42       HAL2     34   PLEPAO    H4S     42     0.090000     1.0080   ; qtot  0.000
    43       CTL2     34   PLEPAO    C25     43    -0.180000    12.0110   ; qtot -0.180
    44       HAL2     34   PLEPAO    H5R     44     0.090000     1.0080   ; qtot -0.090
    45       HAL2     34   PLEPAO    H5S     45     0.090000     1.0080   ; qtot  0.000
    46       CTL2     34   PLEPAO    C26     46    -0.180000    12.0110   ; qtot -0.180
    47       HAL2     34   PLEPAO    H6R     47     0.090000     1.0080   ; qtot -0.090
    48       HAL2     34   PLEPAO    H6S     48     0.090000     1.0080   ; qtot  0.000
    49       CTL2     34   PLEPAO    C27     49    -0.180000    12.0110   ; qtot -0.180
    50       HAL2     34   PLEPAO    H7R     50     0.090000     1.0080   ; qtot -0.090
    51       HAL2     34   PLEPAO    H7S     51     0.090000     1.0080   ; qtot  0.000
    52       CTL2     34   PLEPAO    C28     52    -0.180000    12.0110   ; qtot -0.180
    53       HAL2     34   PLEPAO    H8R     53     0.090000     1.0080   ; qtot -0.090
    54       HAL2     34   PLEPAO    H8S     54     0.090000     1.0080   ; qtot  0.000
    55       CEL1     34   PLEPAO    C29     55    -0.150000    12.0110   ; qtot -0.150
    56       HEL1     34   PLEPAO    H91     56     0.150000     1.0080   ; qtot  0.000
    57       CEL1     34   PLEPAO   C210     57    -0.150000    12.0110   ; qtot -0.150
    58       HEL1     34   PLEPAO   H101     58     0.150000     1.0080   ; qtot  0.000
    59       CTL2     34   PLEPAO   C211     59    -0.180000    12.0110   ; qtot -0.180
    60       HAL2     34   PLEPAO   H11R     60     0.090000     1.0080   ; qtot -0.090
    61       HAL2     34   PLEPAO   H11S     61     0.090000     1.0080   ; qtot  0.000
    62       CTL2     34   PLEPAO   C212     62    -0.180000    12.0110   ; qtot -0.180
    63       HAL2     34   PLEPAO   H12R     63     0.090000     1.0080   ; qtot -0.090
    64       HAL2     34   PLEPAO   H12S     64     0.090000     1.0080   ; qtot  0.000
    65       CTL2     34   PLEPAO   C213     65    -0.180000    12.0110   ; qtot -0.180
    66       HAL2     34   PLEPAO   H13R     66     0.090000     1.0080   ; qtot -0.090
    67       HAL2     34   PLEPAO   H13S     67     0.090000     1.0080   ; qtot  0.000
    68       CTL2     34   PLEPAO   C214     68    -0.180000    12.0110   ; qtot -0.180
    69       HAL2     34   PLEPAO   H14R     69     0.090000     1.0080   ; qtot -0.090
    70       HAL2     34   PLEPAO   H14S     70     0.090000     1.0080   ; qtot  0.000
    71       CTL2     34   PLEPAO   C215     71    -0.180000    12.0110   ; qtot -0.180
    72       HAL2     34   PLEPAO   H15R     72     0.090000     1.0080   ; qtot -0.090
    73       HAL2     34   PLEPAO   H15S     73     0.090000     1.0080   ; qtot  0.000
    74       CTL2     34   PLEPAO   C216     74    -0.180000    12.0110   ; qtot -0.180
    75       HAL2     34   PLEPAO   H16R     75     0.090000     1.0080   ; qtot -0.090
    76       HAL2     34   PLEPAO   H16S     76     0.090000     1.0080   ; qtot  0.000
    77       CTL2     34   PLEPAO   C217     77    -0.180000    12.0110   ; qtot -0.180
    78       HAL2     34   PLEPAO   H17R     78     0.090000     1.0080   ; qtot -0.090
    79       HAL2     34   PLEPAO   H17S     79     0.090000     1.0080   ; qtot  0.000
    80       CTL3     34   PLEPAO   C218     80    -0.270000    12.0110   ; qtot -0.270
    81       HAL3     34   PLEPAO   H18R     81     0.090000     1.0080   ; qtot -0.180
    82       HAL3     34   PLEPAO   H18S     82     0.090000     1.0080   ; qtot -0.090
    83       HAL3     34   PLEPAO   H18T     83     0.090000     1.0080   ; qtot  0.000
    84       CTL2     34   PLEPAO    C33     84    -0.180000    12.0110   ; qtot -0.180
    85       HAL2     34   PLEPAO    H3X     85     0.090000     1.0080   ; qtot -0.090
    86       HAL2     34   PLEPAO    H3Y     86     0.090000     1.0080   ; qtot  0.000
    87       CTL2     34   PLEPAO    C34     87    -0.180000    12.0110   ; qtot -0.180
    88       HAL2     34   PLEPAO    H4X     88     0.090000     1.0080   ; qtot -0.090
    89       HAL2     34   PLEPAO    H4Y     89     0.090000     1.0080   ; qtot  0.000
    90       CTL2     34   PLEPAO    C35     90    -0.180000    12.0110   ; qtot -0.180
    91       HAL2     34   PLEPAO    H5X     91     0.090000     1.0080   ; qtot -0.090
    92       HAL2     34   PLEPAO    H5Y     92     0.090000     1.0080   ; qtot  0.000
    93       CTL2     34   PLEPAO    C36     93    -0.180000    12.0110   ; qtot -0.180
    94       HAL2     34   PLEPAO    H6X     94     0.090000     1.0080   ; qtot -0.090
    95       HAL2     34   PLEPAO    H6Y     95     0.090000     1.0080   ; qtot  0.000
    96       CTL2     34   PLEPAO    C37     96    -0.180000    12.0110   ; qtot -0.180
    97       HAL2     34   PLEPAO    H7X     97     0.090000     1.0080   ; qtot -0.090
    98       HAL2     34   PLEPAO    H7Y     98     0.090000     1.0080   ; qtot  0.000
    99       CTL2     34   PLEPAO    C38     99    -0.180000    12.0110   ; qtot -0.180
   100       HAL2     34   PLEPAO    H8X    100     0.090000     1.0080   ; qtot -0.090
   101       HAL2     34   PLEPAO    H8Y    101     0.090000     1.0080   ; qtot  0.000
   102       CTL2     34   PLEPAO    C39    102    -0.180000    12.0110   ; qtot -0.180
   103       HAL2     34   PLEPAO    H9X    103     0.090000     1.0080   ; qtot -0.090
   104       HAL2     34   PLEPAO    H9Y    104     0.090000     1.0080   ; qtot  0.000
   105       CTL2     34   PLEPAO   C310    105    -0.180000    12.0110   ; qtot -0.180
   106       HAL2     34   PLEPAO   H10X    106     0.090000     1.0080   ; qtot -0.090
   107       HAL2     34   PLEPAO   H10Y    107     0.090000     1.0080   ; qtot  0.000
   108       CTL2     34   PLEPAO   C311    108    -0.180000    12.0110   ; qtot -0.180
   109       HAL2     34   PLEPAO   H11X    109     0.090000     1.0080   ; qtot -0.090
   110       HAL2     34   PLEPAO   H11Y    110     0.090000     1.0080   ; qtot  0.000
   111       CTL2     34   PLEPAO   C312    111    -0.180000    12.0110   ; qtot -0.180
   112       HAL2     34   PLEPAO   H12X    112     0.090000     1.0080   ; qtot -0.090
   113       HAL2     34   PLEPAO   H12Y    113     0.090000     1.0080   ; qtot  0.000
   114       CTL2     34   PLEPAO   C313    114    -0.180000    12.0110   ; qtot -0.180
   115       HAL2     34   PLEPAO   H13X    115     0.090000     1.0080   ; qtot -0.090
   116       HAL2     34   PLEPAO   H13Y    116     0.090000     1.0080   ; qtot  0.000
   117       CTL2     34   PLEPAO   C314    117    -0.180000    12.0110   ; qtot -0.180
   118       HAL2     34   PLEPAO   H14X    118     0.090000     1.0080   ; qtot -0.090
   119       HAL2     34   PLEPAO   H14Y    119     0.090000     1.0080   ; qtot  0.000
   120       CTL2     34   PLEPAO   C315    120    -0.180000    12.0110   ; qtot -0.180
   121       HAL2     34   PLEPAO   H15X    121     0.090000     1.0080   ; qtot -0.090
   122       HAL2     34   PLEPAO   H15Y    122     0.090000     1.0080   ; qtot  0.000
   123       CTL3     34   PLEPAO   C316    123    -0.270000    12.0110   ; qtot -0.270
   124       HAL3     34   PLEPAO   H16X    124     0.090000     1.0080   ; qtot -0.180
   125       HAL3     34   PLEPAO   H16Y    125     0.090000     1.0080   ; qtot -0.090
   126       HAL3     34   PLEPAO   H16Z    126     0.090000     1.0080   ; qtot  0.000

[ bonds ]
; ai	aj	funct	b0	Kb
    1     2     1
    1     3     1
    1     4     1
    1     5     1
    5     6     1
    5     7     1
    5     8     1
    8     9     1
    8    10     1
    8    15     1
   11    12     1
   11    13     1
   11    14     1
   15    11     1
   16    14     1
   16    17     1
   16    18     1
   16    19     1
   19    20     1
   19    21     1
   19    27     1
   21    22     1
   22    23     1
   22    24     1
   24    25     1
   24    26     1
   24    37     1
   27    28     1
   27    29     1
   27    30     1
   30    31     1
   31    32     1
   31    33     1
   31    34     1
   34    35     1
   34    36     1
   34    84     1
   37    38     1
   37    39     1
   37    40     1
   40    41     1
   40    42     1
   40    43     1
   43    44     1
   43    45     1
   43    46     1
   46    47     1
   46    48     1
   46    49     1
   49    50     1
   49    51     1
   49    52     1
   52    53     1
   52    54     1
   52    55     1
   55    56     1
   55    57     1
   57    58     1
   57    59     1
   59    60     1
   59    61     1
   59    62     1
   62    63     1
   62    64     1
   62    65     1
   65    66     1
   65    67     1
   65    68     1
   68    69     1
   68    70     1
   68    71     1
   71    72     1
   71    73     1
   71    74     1
   74    75     1
   74    76     1
   74    77     1
   77    78     1
   77    79     1
   77    80     1
   80    81     1
   80    82     1
   80    83     1
   84    85     1
   84    86     1
   84    87     1
   87    88     1
   87    89     1
   87    90     1
   90    91     1
   90    92     1
   90    93     1
   93    94     1
   93    95     1
   93    96     1
   96    97     1
   96    98     1
   96    99     1
   99   100     1
   99   101     1
   99   102     1
  102   103     1
  102   104     1
  102   105     1
  105   106     1
  105   107     1
  105   108     1
  108   109     1
  108   110     1
  108   111     1
  111   112     1
  111   113     1
  111   114     1
  114   115     1
  114   116     1
  114   117     1
  117   118     1
  117   119     1
  117   120     1
  120   121     1
  120   122     1
  120   123     1
  123   124     1
  123   125     1
  123   126     1

[ pairs ]
; ai	aj	funct	c6	c12 or
; ai	aj	funct	fudgeQQ	q1	q2	c6	c12
    1     9     1
    1    10     1
    1    15     1
    2     6     1
    2     7     1
    2     8     1
    3     6     1
    3     7     1
    3     8     1
    4     6     1
    4     7     1
    4     8     1
    5    11     1
    6     9     1
    6    10     1
    6    15     1
    7     9     1
    7    10     1
    7    15     1
    8    12     1
    8    13     1
    8    14     1
    9    11     1
   10    11     1
   11    17     1
   11    18     1
   11    19     1
   12    16     1
   13    16     1
   14    20     1
   14    21     1
   14    27     1
   15    16     1
   16    22     1
   16    28     1
   16    29     1
   16    30     1
   17    20     1
   17    21     1
   17    27     1
   18    20     1
   18    21     1
   18    27     1
   19    23     1
   19    24     1
   19    31     1
   20    22     1
   20    28     1
   20    29     1
   20    30     1
   21    25     1
   21    26     1
   21    28     1
   21    29     1
   21    30     1
   21    37     1
   22    27     1
   22    38     1
   22    39     1
   22    40     1
   23    25     1
   23    26     1
   23    37     1
   24    41     1
   24    42     1
   24    43     1
   25    38     1
   25    39     1
   25    40     1
   26    38     1
   26    39     1
   26    40     1
   27    32     1
   27    33     1
   27    34     1
   28    31     1
   29    31     1
   30    35     1
   30    36     1
   30    84     1
   31    85     1
   31    86     1
   31    87     1
   32    35     1
   32    36     1
   32    84     1
   33    35     1
   33    36     1
   33    84     1
   34    88     1
   34    89     1
   34    90     1
   35    85     1
   35    86     1
   35    87     1
   36    85     1
   36    86     1
   36    87     1
   37    44     1
   37    45     1
   37    46     1
   38    41     1
   38    42     1
   38    43     1
   39    41     1
   39    42     1
   39    43     1
   40    47     1
   40    48     1
   40    49     1
   41    44     1
   41    45     1
   41    46     1
   42    44     1
   42    45     1
   42    46     1
   43    50     1
   43    51     1
   43    52     1
   44    47     1
   44    48     1
   44    49     1
   45    47     1
   45    48     1
   45    49     1
   46    53     1
   46    54     1
   46    55     1
   47    50     1
   47    51     1
   47    52     1
   48    50     1
   48    51     1
   48    52     1
   49    56     1
   49    57     1
   50    53     1
   50    54     1
   50    55     1
   51    53     1
   51    54     1
   51    55     1
   52    58     1
   52    59     1
   53    56     1
   53    57     1
   54    56     1
   54    57     1
   55    60     1
   55    61     1
   55    62     1
   56    58     1
   56    59     1
   57    63     1
   57    64     1
   57    65     1
   58    60     1
   58    61     1
   58    62     1
   59    66     1
   59    67     1
   59    68     1
   60    63     1
   60    64     1
   60    65     1
   61    63     1
   61    64     1
   61    65     1
   62    69     1
   62    70     1
   62    71     1
   63    66     1
   63    67     1
   63    68     1
   64    66     1
   64    67     1
   64    68     1
   65    72     1
   65    73     1
   65    74     1
   66    69     1
   66    70     1
   66    71     1
   67    69     1
   67    70     1
   67    71     1
   68    75     1
   68    76     1
   68    77     1
   69    72     1
   69    73     1
   69    74     1
   70    72     1
   70    73     1
   70    74     1
   71    78     1
   71    79     1
   71    80     1
   72    75     1
   72    76     1
   72    77     1
   73    75     1
   73    76     1
   73    77     1
   74    81     1
   74    82     1
   74    83     1
   75    78     1
   75    79     1
   75    80     1
   76    78     1
   76    79     1
   76    80     1
   78    81     1
   78    82     1
   78    83     1
   79    81     1
   79    82     1
   79    83     1
   84    91     1
   84    92     1
   84    93     1
   85    88     1
   85    89     1
   85    90     1
   86    88     1
   86    89     1
   86    90     1
   87    94     1
   87    95     1
   87    96     1
   88    91     1
   88    92     1
   88    93     1
   89    91     1
   89    92     1
   89    93     1
   90    97     1
   90    98     1
   90    99     1
   91    94     1
   91    95     1
   91    96     1
   92    94     1
   92    95     1
   92    96     1
   93   100     1
   93   101     1
   93   102     1
   94    97     1
   94    98     1
   94    99     1
   95    97     1
   95    98     1
   95    99     1
   96   103     1
   96   104     1
   96   105     1
   97   100     1
   97   101     1
   97   102     1
   98   100     1
   98   101     1
   98   102     1
   99   106     1
   99   107     1
   99   108     1
  100   103     1
  100   104     1
  100   105     1
  101   103     1
  101   104     1
  101   105     1
  102   109     1
  102   110     1
  102   111     1
  103   106     1
  103   107     1
  103   108     1
  104   106     1
  104   107     1
  104   108     1
  105   112     1
  105   113     1
  105   114     1
  106   109     1
  106   110     1
  106   111     1
  107   109     1
  107   110     1
  107   111     1
  108   115     1
  108   116     1
  108   117     1
  109   112     1
  109   113     1
  109   114     1
  110   112     1
  110   113     1
  110   114     1
  111   118     1
  111   119     1
  111   120     1
  112   115     1
  112   116     1
  112   117     1
  113   115     1
  113   116     1
  113   117     1
  114   121     1
  114   122     1
  114   123     1
  115   118     1
  115   119     1
  115   120     1
  116   118     1
  116   119     1
  116   120     1
  117   124     1
  117   125     1
  117   126     1
  118   121     1
  118   122     1
  118   123     1
  119   121     1
  119   122     1
  119   123     1
  121   124     1
  121   125     1
  121   126     1
  122   124     1
  122   125     1
  122   126     1

[ angles ] 
; ai	aj	ak	funct	th0	cth	S0	Kub
    2     1     3     5
    2     1     4     5
    2     1     5     5
    3     1     4     5
    3     1     5     5
    4     1     5     5
    1     5     6     5
    1     5     7     5
    1     5     8     5
    6     5     7     5
    6     5     8     5
    7     5     8     5
    5     8     9     5
    5     8    10     5
    5     8    15     5
    9     8    10     5
    9     8    15     5
   10     8    15     5
   12    11    13     5
   12    11    14     5
   12    11    15     5
   13    11    14     5
   13    11    15     5
   14    11    15     5
   11    14    16     5
    8    15    11     5
   14    16    17     5
   14    16    18     5
   14    16    19     5
   17    16    18     5
   17    16    19     5
   18    16    19     5
   16    19    20     5
   16    19    21     5
   16    19    27     5
   20    19    21     5
   20    19    27     5
   21    19    27     5
   19    21    22     5
   21    22    23     5
   21    22    24     5
   23    22    24     5
   22    24    25     5
   22    24    26     5
   22    24    37     5
   25    24    26     5
   25    24    37     5
   26    24    37     5
   19    27    28     5
   19    27    29     5
   19    27    30     5
   28    27    29     5
   28    27    30     5
   29    27    30     5
   27    30    31     5
   30    31    32     5
   30    31    33     5
   30    31    34     5
   32    31    33     5
   32    31    34     5
   33    31    34     5
   31    34    35     5
   31    34    36     5
   31    34    84     5
   35    34    36     5
   35    34    84     5
   36    34    84     5
   24    37    38     5
   24    37    39     5
   24    37    40     5
   38    37    39     5
   38    37    40     5
   39    37    40     5
   37    40    41     5
   37    40    42     5
   37    40    43     5
   41    40    42     5
   41    40    43     5
   42    40    43     5
   40    43    44     5
   40    43    45     5
   40    43    46     5
   44    43    45     5
   44    43    46     5
   45    43    46     5
   43    46    47     5
   43    46    48     5
   43    46    49     5
   47    46    48     5
   47    46    49     5
   48    46    49     5
   46    49    50     5
   46    49    51     5
   46    49    52     5
   50    49    51     5
   50    49    52     5
   51    49    52     5
   49    52    53     5
   49    52    54     5
   49    52    55     5
   53    52    54     5
   53    52    55     5
   54    52    55     5
   52    55    56     5
   52    55    57     5
   56    55    57     5
   55    57    58     5
   55    57    59     5
   58    57    59     5
   57    59    60     5
   57    59    61     5
   57    59    62     5
   60    59    61     5
   60    59    62     5
   61    59    62     5
   59    62    63     5
   59    62    64     5
   59    62    65     5
   63    62    64     5
   63    62    65     5
   64    62    65     5
   62    65    66     5
   62    65    67     5
   62    65    68     5
   66    65    67     5
   66    65    68     5
   67    65    68     5
   65    68    69     5
   65    68    70     5
   65    68    71     5
   69    68    70     5
   69    68    71     5
   70    68    71     5
   68    71    72     5
   68    71    73     5
   68    71    74     5
   72    71    73     5
   72    71    74     5
   73    71    74     5
   71    74    75     5
   71    74    76     5
   71    74    77     5
   75    74    76     5
   75    74    77     5
   76    74    77     5
   74    77    78     5
   74    77    79     5
   74    77    80     5
   78    77    79     5
   78    77    80     5
   79    77    80     5
   77    80    81     5
   77    80    82     5
   77    80    83     5
   81    80    82     5
   81    80    83     5
   82    80    83     5
   34    84    85     5
   34    84    86     5
   34    84    87     5
   85    84    86     5
   85    84    87     5
   86    84    87     5
   84    87    88     5
   84    87    89     5
   84    87    90     5
   88    87    89     5
   88    87    90     5
   89    87    90     5
   87    90    91     5
   87    90    92     5
   87    90    93     5
   91    90    92     5
   91    90    93     5
   92    90    93     5
   90    93    94     5
   90    93    95     5
   90    93    96     5
   94    93    95     5
   94    93    96     5
   95    93    96     5
   93    96    97     5
   93    96    98     5
   93    96    99     5
   97    96    98     5
   97    96    99     5
   98    96    99     5
   96    99   100     5
   96    99   101     5
   96    99   102     5
  100    99   101     5
  100    99   102     5
  101    99   102     5
   99   102   103     5
   99   102   104     5
   99   102   105     5
  103   102   104     5
  103   102   105     5
  104   102   105     5
  102   105   106     5
  102   105   107     5
  102   105   108     5
  106   105   107     5
  106   105   108     5
  107   105   108     5
  105   108   109     5
  105   108   110     5
  105   108   111     5
  109   108   110     5
  109   108   111     5
  110   108   111     5
  108   111   112     5
  108   111   113     5
  108   111   114     5
  112   111   113     5
  112   111   114     5
  113   111   114     5
  111   114   115     5
  111   114   116     5
  111   114   117     5
  115   114   116     5
  115   114   117     5
  116   114   117     5
  114   117   118     5
  114   117   119     5
  114   117   120     5
  118   117   119     5
  118   117   120     5
  119   117   120     5
  117   120   121     5
  117   120   122     5
  117   120   123     5
  121   120   122     5
  121   120   123     5
  122   120   123     5
  120   123   124     5
  120   123   125     5
  120   123   126     5
  124   123   125     5
  124   123   126     5
  125   123   126     5

[ dihedrals ]
; ai	aj	ak	al	funct	phi0	cp	mult
    2     1     5     6     9
    2     1     5     7     9
    2     1     5     8     9
    3     1     5     6     9
    3     1     5     7     9
    3     1     5     8     9
    4     1     5     6     9
    4     1     5     7     9
    4     1     5     8     9
    1     5     8     9     9
    1     5     8    10     9
    1     5     8    15     9
    6     5     8     9     9
    6     5     8    10     9
    6     5     8    15     9
    7     5     8     9     9
    7     5     8    10     9
    7     5     8    15     9
    5     8    15    11     9
    9     8    15    11     9
   10     8    15    11     9
   12    11    14    16     9
   13    11    14    16     9
   15    11    14    16     9
   11    14    16    17     9
   11    14    16    18     9
   11    14    16    19     9
    8    15    11    12     9
    8    15    11    13     9
    8    15    11    14     9
   14    16    19    20     9
   14    16    19    21     9
   14    16    19    27     9
   17    16    19    20     9
   17    16    19    21     9
   17    16    19    27     9
   18    16    19    20     9
   18    16    19    21     9
   18    16    19    27     9
   16    19    21    22     9
   20    19    21    22     9
   16    19    27    28     9
   16    19    27    29     9
   16    19    27    30     9
   20    19    27    28     9
   20    19    27    29     9
   20    19    27    30     9
   21    19    27    28     9
   21    19    27    29     9
   21    19    27    30     9
   22    21    19    27     9
   19    21    22    23     9
   19    21    22    24     9
   21    22    24    25     9
   21    22    24    26     9
   21    22    24    37     9
   23    22    24    25     9
   23    22    24    26     9
   23    22    24    37     9
   22    24    37    38     9
   22    24    37    39     9
   22    24    37    40     9
   25    24    37    38     9
   25    24    37    39     9
   25    24    37    40     9
   26    24    37    38     9
   26    24    37    39     9
   26    24    37    40     9
   19    27    30    31     9
   28    27    30    31     9
   29    27    30    31     9
   27    30    31    32     9
   27    30    31    33     9
   27    30    31    34     9
   30    31    34    35     9
   30    31    34    36     9
   30    31    34    84     9
   32    31    34    35     9
   32    31    34    36     9
   32    31    34    84     9
   33    31    34    35     9
   33    31    34    36     9
   33    31    34    84     9
   31    34    84    85     9
   31    34    84    86     9
   31    34    84    87     9
   35    34    84    85     9
   35    34    84    86     9
   35    34    84    87     9
   36    34    84    85     9
   36    34    84    86     9
   36    34    84    87     9
   24    37    40    41     9
   24    37    40    42     9
   24    37    40    43     9
   38    37    40    41     9
   38    37    40    42     9
   38    37    40    43     9
   39    37    40    41     9
   39    37    40    42     9
   39    37    40    43     9
   37    40    43    44     9
   37    40    43    45     9
   37    40    43    46     9
   41    40    43    44     9
   41    40    43    45     9
   41    40    43    46     9
   42    40    43    44     9
   42    40    43    45     9
   42    40    43    46     9
   40    43    46    47     9
   40    43    46    48     9
   40    43    46    49     9
   44    43    46    47     9
   44    43    46    48     9
   44    43    46    49     9
   45    43    46    47     9
   45    43    46    48     9
   45    43    46    49     9
   43    46    49    50     9
   43    46    49    51     9
   43    46    49    52     9
   47    46    49    50     9
   47    46    49    51     9
   47    46    49    52     9
   48    46    49    50     9
   48    46    49    51     9
   48    46    49    52     9
   46    49    52    53     9
   46    49    52    54     9
   46    49    52    55     9
   50    49    52    53     9
   50    49    52    54     9
   50    49    52    55     9
   51    49    52    53     9
   51    49    52    54     9
   51    49    52    55     9
   49    52    55    56     9
   49    52    55    57     9
   53    52    55    56     9
   53    52    55    57     9
   54    52    55    56     9
   54    52    55    57     9
   52    55    57    58     9
   52    55    57    59     9
   56    55    57    58     9
   56    55    57    59     9
   55    57    59    60     9
   55    57    59    61     9
   55    57    59    62     9
   58    57    59    60     9
   58    57    59    61     9
   58    57    59    62     9
   57    59    62    63     9
   57    59    62    64     9
   57    59    62    65     9
   60    59    62    63     9
   60    59    62    64     9
   60    59    62    65     9
   61    59    62    63     9
   61    59    62    64     9
   61    59    62    65     9
   59    62    65    66     9
   59    62    65    67     9
   59    62    65    68     9
   63    62    65    66     9
   63    62    65    67     9
   63    62    65    68     9
   64    62    65    66     9
   64    62    65    67     9
   64    62    65    68     9
   62    65    68    69     9
   62    65    68    70     9
   62    65    68    71     9
   66    65    68    69     9
   66    65    68    70     9
   66    65    68    71     9
   67    65    68    69     9
   67    65    68    70     9
   67    65    68    71     9
   65    68    71    72     9
   65    68    71    73     9
   65    68    71    74     9
   69    68    71    72     9
   69    68    71    73     9
   69    68    71    74     9
   70    68    71    72     9
   70    68    71    73     9
   70    68    71    74     9
   68    71    74    75     9
   68    71    74    76     9
   68    71    74    77     9
   72    71    74    75     9
   72    71    74    76     9
   72    71    74    77     9
   73    71    74    75     9
   73    71    74    76     9
   73    71    74    77     9
   71    74    77    78     9
   71    74    77    79     9
   71    74    77    80     9
   75    74    77    78     9
   75    74    77    79     9
   75    74    77    80     9
   76    74    77    78     9
   76    74    77    79     9
   76    74    77    80     9
   74    77    80    81     9
   74    77    80    82     9
   74    77    80    83     9
   78    77    80    81     9
   78    77    80    82     9
   78    77    80    83     9
   79    77    80    81     9
   79    77    80    82     9
   79    77    80    83     9
   34    84    87    88     9
   34    84    87    89     9
   34    84    87    90     9
   85    84    87    88     9
   85    84    87    89     9
   85    84    87    90     9
   86    84    87    88     9
   86    84    87    89     9
   86    84    87    90     9
   84    87    90    91     9
   84    87    90    92     9
   84    87    90    93     9
   88    87    90    91     9
   88    87    90    92     9
   88    87    90    93     9
   89    87    90    91     9
   89    87    90    92     9
   89    87    90    93     9
   87    90    93    94     9
   87    90    93    95     9
   87    90    93    96     9
   91    90    93    94     9
   91    90    93    95     9
   91    90    93    96     9
   92    90    93    94     9
   92    90    93    95     9
   92    90    93    96     9
   90    93    96    97     9
   90    93    96    98     9
   90    93    96    99     9
   94    93    96    97     9
   94    93    96    98     9
   94    93    96    99     9
   95    93    96    97     9
   95    93    96    98     9
   95    93    96    99     9
   93    96    99   100     9
   93    96    99   101     9
   93    96    99   102     9
   97    96    99   100     9
   97    96    99   101     9
   97    96    99   102     9
   98    96    99   100     9
   98    96    99   101     9
   98    96    99   102     9
   96    99   102   103     9
   96    99   102   104     9
   96    99   102   105     9
  100    99   102   103     9
  100    99   102   104     9
  100    99   102   105     9
  101    99   102   103     9
  101    99   102   104     9
  101    99   102   105     9
   99   102   105   106     9
   99   102   105   107     9
   99   102   105   108     9
  103   102   105   106     9
  103   102   105   107     9
  103   102   105   108     9
  104   102   105   106     9
  104   102   105   107     9
  104   102   105   108     9
  102   105   108   109     9
  102   105   108   110     9
  102   105   108   111     9
  106   105   108   109     9
  106   105   108   110     9
  106   105   108   111     9
  107   105   108   109     9
  107   105   108   110     9
  107   105   108   111     9
  105   108   111   112     9
  105   108   111   113     9
  105   108   111   114     9
  109   108   111   112     9
  109   108   111   113     9
  109   108   111   114     9
  110   108   111   112     9
  110   108   111   113     9
  110   108   111   114     9
  108   111   114   115     9
  108   111   114   116     9
  108   111   114   117     9
  112   111   114   115     9
  112   111   114   116     9
  112   111   114   117     9
  113   111   114   115     9
  113   111   114   116     9
  113   111   114   117     9
  111   114   117   118     9
  111   114   117   119     9
  111   114   117   120     9
  115   114   117   118     9
  115   114   117   119     9
  115   114   117   120     9
  116   114   117   118     9
  116   114   117   119     9
  116   114   117   120     9
  114   117   120   121     9
  114   117   120   122     9
  114   117   120   123     9
  118   117   120   121     9
  118   117   120   122     9
  118   117   120   123     9
  119   117   120   121     9
  119   117   120   122     9
  119   117   120   123     9
  117   120   123   124     9
  117   120   123   125     9
  117   120   123   126     9
  121   120   123   124     9
  121   120   123   125     9
  121   120   123   126     9
  122   120   123   124     9
  122   120   123   125     9
  122   120   123   126     9

[ dihedrals ]
; ai	aj	ak	al	funct	q0	cq
   22    21    24    23     2

#ifdef POSRES
[ position_restraints ]
   11     1     0.0             0.0            POSRES_FC_LIPID
#endif

#ifdef DIHRES
[ dihedral_restraints ]
   16    27    19    21     1   -120.0      2.5       DIHRES_FC
   52    55    57    59     1      0.0      0.0       DIHRES_FC
#endif
