;;
;; Generated by CHARMM-GUI FF-Converter
;;
;; Correspondance:
;; jul316@lehigh.edu or wonpil@lehigh.edu
;;
;; GROMACS topology file for PLESAD
;;


[ moleculetype ]
; name	nrexcl
PLESAD	     3

[ atoms ]
; nr	type	resnr	residu	atom	cgnr	charge	mass
     1       NH3L     22   PLESAD      N      1    -0.300000    14.0070   ; qtot -0.300
     2        HCL     22   PLESAD    HN1      2     0.330000     1.0080   ; qtot  0.030
     3        HCL     22   PLESAD    HN2      3     0.330000     1.0080   ; qtot  0.360
     4        HCL     22   PLESAD    HN3      4     0.330000     1.0080   ; qtot  0.690
     5       CTL2     22   PLESAD    C12      5     0.130000    12.0110   ; qtot  0.820
     6       HAL2     22   PLESAD   H12A      6     0.090000     1.0080   ; qtot  0.910
     7       HAL2     22   PLESAD   H12B      7     0.090000     1.0080   ; qtot  1.000
     8       CTL2     22   PLESAD    C11      8    -0.080000    12.0110   ; qtot  0.920
     9       HAL2     22   PLESAD   H11A      9     0.090000     1.0080   ; qtot  1.010
    10       HAL2     22   PLESAD   H11B     10     0.090000     1.0080   ; qtot  1.100
    11         PL     22   PLESAD      P     11     1.500000    30.9740   ; qtot  2.600
    12        O2L     22   PLESAD    O13     12    -0.780000    15.9994   ; qtot  1.820
    13        O2L     22   PLESAD    O14     13    -0.780000    15.9994   ; qtot  1.040
    14       OSLP     22   PLESAD    O12     14    -0.570000    15.9994   ; qtot  0.470
    15       OSLP     22   PLESAD    O11     15    -0.570000    15.9994   ; qtot -0.100
    16       CTL2     22   PLESAD     C1     16    -0.080000    12.0110   ; qtot -0.180
    17       HAL2     22   PLESAD     HA     17     0.090000     1.0080   ; qtot -0.090
    18       HAL2     22   PLESAD     HB     18     0.090000     1.0080   ; qtot  0.000
    19       CTL1     22   PLESAD     C2     19     0.170000    12.0110   ; qtot  0.170
    20       HAL1     22   PLESAD     HS     20     0.090000     1.0080   ; qtot  0.260
    21        OSL     22   PLESAD    O21     21    -0.490000    15.9994   ; qtot -0.230
    22         CL     22   PLESAD    C21     22     0.900000    12.0110   ; qtot  0.670
    23        OBL     22   PLESAD    O22     23    -0.630000    15.9994   ; qtot  0.040
    24       CTL2     22   PLESAD    C22     24    -0.220000    12.0110   ; qtot -0.180
    25       HAL2     22   PLESAD    H2R     25     0.090000     1.0080   ; qtot -0.090
    26       HAL2     22   PLESAD    H2S     26     0.090000     1.0080   ; qtot  0.000
    27       CTL2     22   PLESAD     C3     27     0.080000    12.0110   ; qtot  0.080
    28       HAL2     22   PLESAD     HX     28     0.020000     1.0080   ; qtot  0.100
    29       HAL2     22   PLESAD     HY     29     0.020000     1.0080   ; qtot  0.120
    30      OG301     22   PLESAD    O31     30    -0.560000    15.9994   ; qtot -0.440
    31       CEL1     22   PLESAD    C31     31     0.420000    12.0110   ; qtot -0.020
    32       HEL1     22   PLESAD    H1X     32     0.020000     1.0080   ; qtot  0.000
    33       CEL1     22   PLESAD    C32     33    -0.150000    12.0110   ; qtot -0.150
    34       HEL1     22   PLESAD    H2X     34     0.150000     1.0080   ; qtot  0.000
    35       CTL2     22   PLESAD    C23     35    -0.180000    12.0110   ; qtot -0.180
    36       HAL2     22   PLESAD    H3R     36     0.090000     1.0080   ; qtot -0.090
    37       HAL2     22   PLESAD    H3S     37     0.090000     1.0080   ; qtot  0.000
    38       CTL2     22   PLESAD    C24     38    -0.180000    12.0110   ; qtot -0.180
    39       HAL2     22   PLESAD    H4R     39     0.090000     1.0080   ; qtot -0.090
    40       HAL2     22   PLESAD    H4S     40     0.090000     1.0080   ; qtot  0.000
    41       CTL2     22   PLESAD    C25     41    -0.180000    12.0110   ; qtot -0.180
    42       HAL2     22   PLESAD    H5R     42     0.090000     1.0080   ; qtot -0.090
    43       HAL2     22   PLESAD    H5S     43     0.090000     1.0080   ; qtot  0.000
    44       CTL2     22   PLESAD    C26     44    -0.180000    12.0110   ; qtot -0.180
    45       HAL2     22   PLESAD    H6R     45     0.090000     1.0080   ; qtot -0.090
    46       HAL2     22   PLESAD    H6S     46     0.090000     1.0080   ; qtot  0.000
    47       CEL1     22   PLESAD    C27     47    -0.150000    12.0110   ; qtot -0.150
    48       HEL1     22   PLESAD    H7R     48     0.150000     1.0080   ; qtot  0.000
    49       CEL1     22   PLESAD    C28     49    -0.150000    12.0110   ; qtot -0.150
    50       HEL1     22   PLESAD    H8R     50     0.150000     1.0080   ; qtot  0.000
    51       CTL2     22   PLESAD    C29     51    -0.180000    12.0110   ; qtot -0.180
    52       HAL2     22   PLESAD    H9R     52     0.090000     1.0080   ; qtot -0.090
    53       HAL2     22   PLESAD    H9S     53     0.090000     1.0080   ; qtot  0.000
    54       CEL1     22   PLESAD   C210     54    -0.150000    12.0110   ; qtot -0.150
    55       HEL1     22   PLESAD   H10R     55     0.150000     1.0080   ; qtot  0.000
    56       CEL1     22   PLESAD   C211     56    -0.150000    12.0110   ; qtot -0.150
    57       HEL1     22   PLESAD   H11R     57     0.150000     1.0080   ; qtot  0.000
    58       CTL2     22   PLESAD   C212     58    -0.180000    12.0110   ; qtot -0.180
    59       HAL2     22   PLESAD   H12R     59     0.090000     1.0080   ; qtot -0.090
    60       HAL2     22   PLESAD   H12S     60     0.090000     1.0080   ; qtot  0.000
    61       CEL1     22   PLESAD   C213     61    -0.150000    12.0110   ; qtot -0.150
    62       HEL1     22   PLESAD   H13R     62     0.150000     1.0080   ; qtot  0.000
    63       CEL1     22   PLESAD   C214     63    -0.150000    12.0110   ; qtot -0.150
    64       HEL1     22   PLESAD   H14R     64     0.150000     1.0080   ; qtot  0.000
    65       CTL2     22   PLESAD   C215     65    -0.180000    12.0110   ; qtot -0.180
    66       HAL2     22   PLESAD   H15R     66     0.090000     1.0080   ; qtot -0.090
    67       HAL2     22   PLESAD   H15S     67     0.090000     1.0080   ; qtot  0.000
    68       CEL1     22   PLESAD   C216     68    -0.150000    12.0110   ; qtot -0.150
    69       HEL1     22   PLESAD   H16R     69     0.150000     1.0080   ; qtot  0.000
    70       CEL1     22   PLESAD   C217     70    -0.150000    12.0110   ; qtot -0.150
    71       HEL1     22   PLESAD   H17R     71     0.150000     1.0080   ; qtot  0.000
    72       CTL2     22   PLESAD   C218     72    -0.180000    12.0110   ; qtot -0.180
    73       HAL2     22   PLESAD   H18R     73     0.090000     1.0080   ; qtot -0.090
    74       HAL2     22   PLESAD   H18S     74     0.090000     1.0080   ; qtot  0.000
    75       CTL2     22   PLESAD   C219     75    -0.180000    12.0110   ; qtot -0.180
    76       HAL2     22   PLESAD   H19R     76     0.090000     1.0080   ; qtot -0.090
    77       HAL2     22   PLESAD   H19S     77     0.090000     1.0080   ; qtot  0.000
    78       CTL2     22   PLESAD   C220     78    -0.180000    12.0110   ; qtot -0.180
    79       HAL2     22   PLESAD   H20R     79     0.090000     1.0080   ; qtot -0.090
    80       HAL2     22   PLESAD   H20S     80     0.090000     1.0080   ; qtot  0.000
    81       CTL2     22   PLESAD   C221     81    -0.180000    12.0110   ; qtot -0.180
    82       HAL2     22   PLESAD   H21R     82     0.090000     1.0080   ; qtot -0.090
    83       HAL2     22   PLESAD   H21S     83     0.090000     1.0080   ; qtot  0.000
    84       CTL3     22   PLESAD   C222     84    -0.270000    12.0110   ; qtot -0.270
    85       HAL3     22   PLESAD   H22R     85     0.090000     1.0080   ; qtot -0.180
    86       HAL3     22   PLESAD   H22S     86     0.090000     1.0080   ; qtot -0.090
    87       HAL3     22   PLESAD   H22T     87     0.090000     1.0080   ; qtot  0.000
    88       CTL2     22   PLESAD    C33     88    -0.180000    12.0110   ; qtot -0.180
    89       HAL2     22   PLESAD    H3X     89     0.090000     1.0080   ; qtot -0.090
    90       HAL2     22   PLESAD    H3Y     90     0.090000     1.0080   ; qtot  0.000
    91       CTL2     22   PLESAD    C34     91    -0.180000    12.0110   ; qtot -0.180
    92       HAL2     22   PLESAD    H4X     92     0.090000     1.0080   ; qtot -0.090
    93       HAL2     22   PLESAD    H4Y     93     0.090000     1.0080   ; qtot  0.000
    94       CTL2     22   PLESAD    C35     94    -0.180000    12.0110   ; qtot -0.180
    95       HAL2     22   PLESAD    H5X     95     0.090000     1.0080   ; qtot -0.090
    96       HAL2     22   PLESAD    H5Y     96     0.090000     1.0080   ; qtot  0.000
    97       CTL2     22   PLESAD    C36     97    -0.180000    12.0110   ; qtot -0.180
    98       HAL2     22   PLESAD    H6X     98     0.090000     1.0080   ; qtot -0.090
    99       HAL2     22   PLESAD    H6Y     99     0.090000     1.0080   ; qtot  0.000
   100       CTL2     22   PLESAD    C37    100    -0.180000    12.0110   ; qtot -0.180
   101       HAL2     22   PLESAD    H7X    101     0.090000     1.0080   ; qtot -0.090
   102       HAL2     22   PLESAD    H7Y    102     0.090000     1.0080   ; qtot  0.000
   103       CTL2     22   PLESAD    C38    103    -0.180000    12.0110   ; qtot -0.180
   104       HAL2     22   PLESAD    H8X    104     0.090000     1.0080   ; qtot -0.090
   105       HAL2     22   PLESAD    H8Y    105     0.090000     1.0080   ; qtot  0.000
   106       CTL2     22   PLESAD    C39    106    -0.180000    12.0110   ; qtot -0.180
   107       HAL2     22   PLESAD    H9X    107     0.090000     1.0080   ; qtot -0.090
   108       HAL2     22   PLESAD    H9Y    108     0.090000     1.0080   ; qtot  0.000
   109       CTL2     22   PLESAD   C310    109    -0.180000    12.0110   ; qtot -0.180
   110       HAL2     22   PLESAD   H10X    110     0.090000     1.0080   ; qtot -0.090
   111       HAL2     22   PLESAD   H10Y    111     0.090000     1.0080   ; qtot  0.000
   112       CTL2     22   PLESAD   C311    112    -0.180000    12.0110   ; qtot -0.180
   113       HAL2     22   PLESAD   H11X    113     0.090000     1.0080   ; qtot -0.090
   114       HAL2     22   PLESAD   H11Y    114     0.090000     1.0080   ; qtot  0.000
   115       CTL2     22   PLESAD   C312    115    -0.180000    12.0110   ; qtot -0.180
   116       HAL2     22   PLESAD   H12X    116     0.090000     1.0080   ; qtot -0.090
   117       HAL2     22   PLESAD   H12Y    117     0.090000     1.0080   ; qtot  0.000
   118       CTL2     22   PLESAD   C313    118    -0.180000    12.0110   ; qtot -0.180
   119       HAL2     22   PLESAD   H13X    119     0.090000     1.0080   ; qtot -0.090
   120       HAL2     22   PLESAD   H13Y    120     0.090000     1.0080   ; qtot  0.000
   121       CTL2     22   PLESAD   C314    121    -0.180000    12.0110   ; qtot -0.180
   122       HAL2     22   PLESAD   H14X    122     0.090000     1.0080   ; qtot -0.090
   123       HAL2     22   PLESAD   H14Y    123     0.090000     1.0080   ; qtot  0.000
   124       CTL2     22   PLESAD   C315    124    -0.180000    12.0110   ; qtot -0.180
   125       HAL2     22   PLESAD   H15X    125     0.090000     1.0080   ; qtot -0.090
   126       HAL2     22   PLESAD   H15Y    126     0.090000     1.0080   ; qtot  0.000
   127       CTL2     22   PLESAD   C316    127    -0.180000    12.0110   ; qtot -0.180
   128       HAL2     22   PLESAD   H16X    128     0.090000     1.0080   ; qtot -0.090
   129       HAL2     22   PLESAD   H16Y    129     0.090000     1.0080   ; qtot  0.000
   130       CTL2     22   PLESAD   C317    130    -0.180000    12.0110   ; qtot -0.180
   131       HAL2     22   PLESAD   H17X    131     0.090000     1.0080   ; qtot -0.090
   132       HAL2     22   PLESAD   H17Y    132     0.090000     1.0080   ; qtot  0.000
   133       CTL3     22   PLESAD   C318    133    -0.270000    12.0110   ; qtot -0.270
   134       HAL3     22   PLESAD   H18X    134     0.090000     1.0080   ; qtot -0.180
   135       HAL3     22   PLESAD   H18Y    135     0.090000     1.0080   ; qtot -0.090
   136       HAL3     22   PLESAD   H18Z    136     0.090000     1.0080   ; qtot  0.000

[ bonds ]
; ai	aj	funct	b0	Kb
    1     2     1
    1     3     1
    1     4     1
    1     5     1
    5     6     1
    5     7     1
    5     8     1
    8     9     1
    8    10     1
    8    14     1
   11    12     1
   11    13     1
   14    11     1
   11    15     1
   16    15     1
   16    17     1
   16    18     1
   16    19     1
   19    20     1
   19    21     1
   19    27     1
   21    22     1
   22    23     1
   22    24     1
   24    25     1
   24    26     1
   24    35     1
   27    28     1
   27    29     1
   27    30     1
   30    31     1
   31    32     1
   31    33     1
   33    34     1
   33    88     1
   35    36     1
   35    37     1
   35    38     1
   38    39     1
   38    40     1
   38    41     1
   41    42     1
   41    43     1
   41    44     1
   44    45     1
   44    46     1
   44    47     1
   47    48     1
   47    49     1
   49    50     1
   49    51     1
   51    52     1
   51    53     1
   51    54     1
   54    55     1
   54    56     1
   56    57     1
   56    58     1
   58    59     1
   58    60     1
   58    61     1
   61    62     1
   61    63     1
   63    64     1
   63    65     1
   65    66     1
   65    67     1
   65    68     1
   68    69     1
   68    70     1
   70    71     1
   70    72     1
   72    73     1
   72    74     1
   72    75     1
   75    76     1
   75    77     1
   75    78     1
   78    79     1
   78    80     1
   78    81     1
   81    82     1
   81    83     1
   81    84     1
   84    85     1
   84    86     1
   84    87     1
   88    89     1
   88    90     1
   88    91     1
   91    92     1
   91    93     1
   91    94     1
   94    95     1
   94    96     1
   94    97     1
   97    98     1
   97    99     1
   97   100     1
  100   101     1
  100   102     1
  100   103     1
  103   104     1
  103   105     1
  103   106     1
  106   107     1
  106   108     1
  106   109     1
  109   110     1
  109   111     1
  109   112     1
  112   113     1
  112   114     1
  112   115     1
  115   116     1
  115   117     1
  115   118     1
  118   119     1
  118   120     1
  118   121     1
  121   122     1
  121   123     1
  121   124     1
  124   125     1
  124   126     1
  124   127     1
  127   128     1
  127   129     1
  127   130     1
  130   131     1
  130   132     1
  130   133     1
  133   134     1
  133   135     1
  133   136     1

[ pairs ]
; ai	aj	funct	c6	c12 or
; ai	aj	funct	fudgeQQ	q1	q2	c6	c12
    1     9     1
    1    10     1
    1    14     1
    2     6     1
    2     7     1
    2     8     1
    3     6     1
    3     7     1
    3     8     1
    4     6     1
    4     7     1
    4     8     1
    5    11     1
    6     9     1
    6    10     1
    6    14     1
    7     9     1
    7    10     1
    7    14     1
    8    12     1
    8    13     1
    8    15     1
    9    11     1
   10    11     1
   11    17     1
   11    18     1
   11    19     1
   12    16     1
   13    16     1
   14    16     1
   15    20     1
   15    21     1
   15    27     1
   16    22     1
   16    28     1
   16    29     1
   16    30     1
   17    20     1
   17    21     1
   17    27     1
   18    20     1
   18    21     1
   18    27     1
   19    23     1
   19    24     1
   19    31     1
   20    22     1
   20    28     1
   20    29     1
   20    30     1
   21    25     1
   21    26     1
   21    28     1
   21    29     1
   21    30     1
   21    35     1
   22    27     1
   22    36     1
   22    37     1
   22    38     1
   23    25     1
   23    26     1
   23    35     1
   24    39     1
   24    40     1
   24    41     1
   25    36     1
   25    37     1
   25    38     1
   26    36     1
   26    37     1
   26    38     1
   27    32     1
   27    33     1
   28    31     1
   29    31     1
   30    34     1
   30    88     1
   31    89     1
   31    90     1
   31    91     1
   32    34     1
   32    88     1
   33    92     1
   33    93     1
   33    94     1
   34    89     1
   34    90     1
   34    91     1
   35    42     1
   35    43     1
   35    44     1
   36    39     1
   36    40     1
   36    41     1
   37    39     1
   37    40     1
   37    41     1
   38    45     1
   38    46     1
   38    47     1
   39    42     1
   39    43     1
   39    44     1
   40    42     1
   40    43     1
   40    44     1
   41    48     1
   41    49     1
   42    45     1
   42    46     1
   42    47     1
   43    45     1
   43    46     1
   43    47     1
   44    50     1
   44    51     1
   45    48     1
   45    49     1
   46    48     1
   46    49     1
   47    52     1
   47    53     1
   47    54     1
   48    50     1
   48    51     1
   49    55     1
   49    56     1
   50    52     1
   50    53     1
   50    54     1
   51    57     1
   51    58     1
   52    55     1
   52    56     1
   53    55     1
   53    56     1
   54    59     1
   54    60     1
   54    61     1
   55    57     1
   55    58     1
   56    62     1
   56    63     1
   57    59     1
   57    60     1
   57    61     1
   58    64     1
   58    65     1
   59    62     1
   59    63     1
   60    62     1
   60    63     1
   61    66     1
   61    67     1
   61    68     1
   62    64     1
   62    65     1
   63    69     1
   63    70     1
   64    66     1
   64    67     1
   64    68     1
   65    71     1
   65    72     1
   66    69     1
   66    70     1
   67    69     1
   67    70     1
   68    73     1
   68    74     1
   68    75     1
   69    71     1
   69    72     1
   70    76     1
   70    77     1
   70    78     1
   71    73     1
   71    74     1
   71    75     1
   72    79     1
   72    80     1
   72    81     1
   73    76     1
   73    77     1
   73    78     1
   74    76     1
   74    77     1
   74    78     1
   75    82     1
   75    83     1
   75    84     1
   76    79     1
   76    80     1
   76    81     1
   77    79     1
   77    80     1
   77    81     1
   78    85     1
   78    86     1
   78    87     1
   79    82     1
   79    83     1
   79    84     1
   80    82     1
   80    83     1
   80    84     1
   82    85     1
   82    86     1
   82    87     1
   83    85     1
   83    86     1
   83    87     1
   88    95     1
   88    96     1
   88    97     1
   89    92     1
   89    93     1
   89    94     1
   90    92     1
   90    93     1
   90    94     1
   91    98     1
   91    99     1
   91   100     1
   92    95     1
   92    96     1
   92    97     1
   93    95     1
   93    96     1
   93    97     1
   94   101     1
   94   102     1
   94   103     1
   95    98     1
   95    99     1
   95   100     1
   96    98     1
   96    99     1
   96   100     1
   97   104     1
   97   105     1
   97   106     1
   98   101     1
   98   102     1
   98   103     1
   99   101     1
   99   102     1
   99   103     1
  100   107     1
  100   108     1
  100   109     1
  101   104     1
  101   105     1
  101   106     1
  102   104     1
  102   105     1
  102   106     1
  103   110     1
  103   111     1
  103   112     1
  104   107     1
  104   108     1
  104   109     1
  105   107     1
  105   108     1
  105   109     1
  106   113     1
  106   114     1
  106   115     1
  107   110     1
  107   111     1
  107   112     1
  108   110     1
  108   111     1
  108   112     1
  109   116     1
  109   117     1
  109   118     1
  110   113     1
  110   114     1
  110   115     1
  111   113     1
  111   114     1
  111   115     1
  112   119     1
  112   120     1
  112   121     1
  113   116     1
  113   117     1
  113   118     1
  114   116     1
  114   117     1
  114   118     1
  115   122     1
  115   123     1
  115   124     1
  116   119     1
  116   120     1
  116   121     1
  117   119     1
  117   120     1
  117   121     1
  118   125     1
  118   126     1
  118   127     1
  119   122     1
  119   123     1
  119   124     1
  120   122     1
  120   123     1
  120   124     1
  121   128     1
  121   129     1
  121   130     1
  122   125     1
  122   126     1
  122   127     1
  123   125     1
  123   126     1
  123   127     1
  124   131     1
  124   132     1
  124   133     1
  125   128     1
  125   129     1
  125   130     1
  126   128     1
  126   129     1
  126   130     1
  127   134     1
  127   135     1
  127   136     1
  128   131     1
  128   132     1
  128   133     1
  129   131     1
  129   132     1
  129   133     1
  131   134     1
  131   135     1
  131   136     1
  132   134     1
  132   135     1
  132   136     1

[ angles ] 
; ai	aj	ak	funct	th0	cth	S0	Kub
    2     1     3     5
    2     1     4     5
    2     1     5     5
    3     1     4     5
    3     1     5     5
    4     1     5     5
    1     5     6     5
    1     5     7     5
    1     5     8     5
    6     5     7     5
    6     5     8     5
    7     5     8     5
    5     8     9     5
    5     8    10     5
    5     8    14     5
    9     8    10     5
    9     8    14     5
   10     8    14     5
   12    11    13     5
   12    11    14     5
   12    11    15     5
   13    11    14     5
   13    11    15     5
   14    11    15     5
    8    14    11     5
   11    15    16     5
   15    16    17     5
   15    16    18     5
   15    16    19     5
   17    16    18     5
   17    16    19     5
   18    16    19     5
   16    19    20     5
   16    19    21     5
   16    19    27     5
   20    19    21     5
   20    19    27     5
   21    19    27     5
   19    21    22     5
   21    22    23     5
   21    22    24     5
   23    22    24     5
   22    24    25     5
   22    24    26     5
   22    24    35     5
   25    24    26     5
   25    24    35     5
   26    24    35     5
   19    27    28     5
   19    27    29     5
   19    27    30     5
   28    27    29     5
   28    27    30     5
   29    27    30     5
   27    30    31     5
   30    31    32     5
   30    31    33     5
   32    31    33     5
   31    33    34     5
   31    33    88     5
   34    33    88     5
   24    35    36     5
   24    35    37     5
   24    35    38     5
   36    35    37     5
   36    35    38     5
   37    35    38     5
   35    38    39     5
   35    38    40     5
   35    38    41     5
   39    38    40     5
   39    38    41     5
   40    38    41     5
   38    41    42     5
   38    41    43     5
   38    41    44     5
   42    41    43     5
   42    41    44     5
   43    41    44     5
   41    44    45     5
   41    44    46     5
   41    44    47     5
   45    44    46     5
   45    44    47     5
   46    44    47     5
   44    47    48     5
   44    47    49     5
   48    47    49     5
   47    49    50     5
   47    49    51     5
   50    49    51     5
   49    51    52     5
   49    51    53     5
   49    51    54     5
   52    51    53     5
   52    51    54     5
   53    51    54     5
   51    54    55     5
   51    54    56     5
   55    54    56     5
   54    56    57     5
   54    56    58     5
   57    56    58     5
   56    58    59     5
   56    58    60     5
   56    58    61     5
   59    58    60     5
   59    58    61     5
   60    58    61     5
   58    61    62     5
   58    61    63     5
   62    61    63     5
   61    63    64     5
   61    63    65     5
   64    63    65     5
   63    65    66     5
   63    65    67     5
   63    65    68     5
   66    65    67     5
   66    65    68     5
   67    65    68     5
   65    68    69     5
   65    68    70     5
   69    68    70     5
   68    70    71     5
   68    70    72     5
   71    70    72     5
   70    72    73     5
   70    72    74     5
   70    72    75     5
   73    72    74     5
   73    72    75     5
   74    72    75     5
   72    75    76     5
   72    75    77     5
   72    75    78     5
   76    75    77     5
   76    75    78     5
   77    75    78     5
   75    78    79     5
   75    78    80     5
   75    78    81     5
   79    78    80     5
   79    78    81     5
   80    78    81     5
   78    81    82     5
   78    81    83     5
   78    81    84     5
   82    81    83     5
   82    81    84     5
   83    81    84     5
   81    84    85     5
   81    84    86     5
   81    84    87     5
   85    84    86     5
   85    84    87     5
   86    84    87     5
   33    88    89     5
   33    88    90     5
   33    88    91     5
   89    88    90     5
   89    88    91     5
   90    88    91     5
   88    91    92     5
   88    91    93     5
   88    91    94     5
   92    91    93     5
   92    91    94     5
   93    91    94     5
   91    94    95     5
   91    94    96     5
   91    94    97     5
   95    94    96     5
   95    94    97     5
   96    94    97     5
   94    97    98     5
   94    97    99     5
   94    97   100     5
   98    97    99     5
   98    97   100     5
   99    97   100     5
   97   100   101     5
   97   100   102     5
   97   100   103     5
  101   100   102     5
  101   100   103     5
  102   100   103     5
  100   103   104     5
  100   103   105     5
  100   103   106     5
  104   103   105     5
  104   103   106     5
  105   103   106     5
  103   106   107     5
  103   106   108     5
  103   106   109     5
  107   106   108     5
  107   106   109     5
  108   106   109     5
  106   109   110     5
  106   109   111     5
  106   109   112     5
  110   109   111     5
  110   109   112     5
  111   109   112     5
  109   112   113     5
  109   112   114     5
  109   112   115     5
  113   112   114     5
  113   112   115     5
  114   112   115     5
  112   115   116     5
  112   115   117     5
  112   115   118     5
  116   115   117     5
  116   115   118     5
  117   115   118     5
  115   118   119     5
  115   118   120     5
  115   118   121     5
  119   118   120     5
  119   118   121     5
  120   118   121     5
  118   121   122     5
  118   121   123     5
  118   121   124     5
  122   121   123     5
  122   121   124     5
  123   121   124     5
  121   124   125     5
  121   124   126     5
  121   124   127     5
  125   124   126     5
  125   124   127     5
  126   124   127     5
  124   127   128     5
  124   127   129     5
  124   127   130     5
  128   127   129     5
  128   127   130     5
  129   127   130     5
  127   130   131     5
  127   130   132     5
  127   130   133     5
  131   130   132     5
  131   130   133     5
  132   130   133     5
  130   133   134     5
  130   133   135     5
  130   133   136     5
  134   133   135     5
  134   133   136     5
  135   133   136     5

[ dihedrals ]
; ai	aj	ak	al	funct	phi0	cp	mult
    2     1     5     6     9
    2     1     5     7     9
    2     1     5     8     9
    3     1     5     6     9
    3     1     5     7     9
    3     1     5     8     9
    4     1     5     6     9
    4     1     5     7     9
    4     1     5     8     9
    1     5     8     9     9
    1     5     8    10     9
    1     5     8    14     9
    6     5     8     9     9
    6     5     8    10     9
    6     5     8    14     9
    7     5     8     9     9
    7     5     8    10     9
    7     5     8    14     9
    5     8    14    11     9
    9     8    14    11     9
   10     8    14    11     9
   12    11    15    16     9
   13    11    15    16     9
   14    11    15    16     9
    8    14    11    12     9
    8    14    11    13     9
    8    14    11    15     9
   11    15    16    17     9
   11    15    16    18     9
   11    15    16    19     9
   15    16    19    20     9
   15    16    19    21     9
   15    16    19    27     9
   17    16    19    20     9
   17    16    19    21     9
   17    16    19    27     9
   18    16    19    20     9
   18    16    19    21     9
   18    16    19    27     9
   16    19    21    22     9
   20    19    21    22     9
   16    19    27    28     9
   16    19    27    29     9
   16    19    27    30     9
   20    19    27    28     9
   20    19    27    29     9
   20    19    27    30     9
   21    19    27    28     9
   21    19    27    29     9
   21    19    27    30     9
   22    21    19    27     9
   19    21    22    23     9
   19    21    22    24     9
   21    22    24    25     9
   21    22    24    26     9
   21    22    24    35     9
   23    22    24    25     9
   23    22    24    26     9
   23    22    24    35     9
   22    24    35    36     9
   22    24    35    37     9
   22    24    35    38     9
   25    24    35    36     9
   25    24    35    37     9
   25    24    35    38     9
   26    24    35    36     9
   26    24    35    37     9
   26    24    35    38     9
   19    27    30    31     9
   28    27    30    31     9
   29    27    30    31     9
   27    30    31    32     9
   27    30    31    33     9
   30    31    33    34     9
   30    31    33    88     9
   32    31    33    34     9
   32    31    33    88     9
   31    33    88    89     9
   31    33    88    90     9
   31    33    88    91     9
   34    33    88    89     9
   34    33    88    90     9
   34    33    88    91     9
   24    35    38    39     9
   24    35    38    40     9
   24    35    38    41     9
   36    35    38    39     9
   36    35    38    40     9
   36    35    38    41     9
   37    35    38    39     9
   37    35    38    40     9
   37    35    38    41     9
   35    38    41    42     9
   35    38    41    43     9
   35    38    41    44     9
   39    38    41    42     9
   39    38    41    43     9
   39    38    41    44     9
   40    38    41    42     9
   40    38    41    43     9
   40    38    41    44     9
   38    41    44    45     9
   38    41    44    46     9
   38    41    44    47     9
   42    41    44    45     9
   42    41    44    46     9
   42    41    44    47     9
   43    41    44    45     9
   43    41    44    46     9
   43    41    44    47     9
   41    44    47    48     9
   41    44    47    49     9
   45    44    47    48     9
   45    44    47    49     9
   46    44    47    48     9
   46    44    47    49     9
   44    47    49    50     9
   44    47    49    51     9
   48    47    49    50     9
   48    47    49    51     9
   47    49    51    52     9
   47    49    51    53     9
   47    49    51    54     9
   50    49    51    52     9
   50    49    51    53     9
   50    49    51    54     9
   49    51    54    55     9
   49    51    54    56     9
   52    51    54    55     9
   52    51    54    56     9
   53    51    54    55     9
   53    51    54    56     9
   51    54    56    57     9
   51    54    56    58     9
   55    54    56    57     9
   55    54    56    58     9
   54    56    58    59     9
   54    56    58    60     9
   54    56    58    61     9
   57    56    58    59     9
   57    56    58    60     9
   57    56    58    61     9
   56    58    61    62     9
   56    58    61    63     9
   59    58    61    62     9
   59    58    61    63     9
   60    58    61    62     9
   60    58    61    63     9
   58    61    63    64     9
   58    61    63    65     9
   62    61    63    64     9
   62    61    63    65     9
   61    63    65    66     9
   61    63    65    67     9
   61    63    65    68     9
   64    63    65    66     9
   64    63    65    67     9
   64    63    65    68     9
   63    65    68    69     9
   63    65    68    70     9
   66    65    68    69     9
   66    65    68    70     9
   67    65    68    69     9
   67    65    68    70     9
   65    68    70    71     9
   65    68    70    72     9
   69    68    70    71     9
   69    68    70    72     9
   68    70    72    73     9
   68    70    72    74     9
   68    70    72    75     9
   71    70    72    73     9
   71    70    72    74     9
   71    70    72    75     9
   70    72    75    76     9
   70    72    75    77     9
   70    72    75    78     9
   73    72    75    76     9
   73    72    75    77     9
   73    72    75    78     9
   74    72    75    76     9
   74    72    75    77     9
   74    72    75    78     9
   72    75    78    79     9
   72    75    78    80     9
   72    75    78    81     9
   76    75    78    79     9
   76    75    78    80     9
   76    75    78    81     9
   77    75    78    79     9
   77    75    78    80     9
   77    75    78    81     9
   75    78    81    82     9
   75    78    81    83     9
   75    78    81    84     9
   79    78    81    82     9
   79    78    81    83     9
   79    78    81    84     9
   80    78    81    82     9
   80    78    81    83     9
   80    78    81    84     9
   78    81    84    85     9
   78    81    84    86     9
   78    81    84    87     9
   82    81    84    85     9
   82    81    84    86     9
   82    81    84    87     9
   83    81    84    85     9
   83    81    84    86     9
   83    81    84    87     9
   33    88    91    92     9
   33    88    91    93     9
   33    88    91    94     9
   89    88    91    92     9
   89    88    91    93     9
   89    88    91    94     9
   90    88    91    92     9
   90    88    91    93     9
   90    88    91    94     9
   88    91    94    95     9
   88    91    94    96     9
   88    91    94    97     9
   92    91    94    95     9
   92    91    94    96     9
   92    91    94    97     9
   93    91    94    95     9
   93    91    94    96     9
   93    91    94    97     9
   91    94    97    98     9
   91    94    97    99     9
   91    94    97   100     9
   95    94    97    98     9
   95    94    97    99     9
   95    94    97   100     9
   96    94    97    98     9
   96    94    97    99     9
   96    94    97   100     9
   94    97   100   101     9
   94    97   100   102     9
   94    97   100   103     9
   98    97   100   101     9
   98    97   100   102     9
   98    97   100   103     9
   99    97   100   101     9
   99    97   100   102     9
   99    97   100   103     9
   97   100   103   104     9
   97   100   103   105     9
   97   100   103   106     9
  101   100   103   104     9
  101   100   103   105     9
  101   100   103   106     9
  102   100   103   104     9
  102   100   103   105     9
  102   100   103   106     9
  100   103   106   107     9
  100   103   106   108     9
  100   103   106   109     9
  104   103   106   107     9
  104   103   106   108     9
  104   103   106   109     9
  105   103   106   107     9
  105   103   106   108     9
  105   103   106   109     9
  103   106   109   110     9
  103   106   109   111     9
  103   106   109   112     9
  107   106   109   110     9
  107   106   109   111     9
  107   106   109   112     9
  108   106   109   110     9
  108   106   109   111     9
  108   106   109   112     9
  106   109   112   113     9
  106   109   112   114     9
  106   109   112   115     9
  110   109   112   113     9
  110   109   112   114     9
  110   109   112   115     9
  111   109   112   113     9
  111   109   112   114     9
  111   109   112   115     9
  109   112   115   116     9
  109   112   115   117     9
  109   112   115   118     9
  113   112   115   116     9
  113   112   115   117     9
  113   112   115   118     9
  114   112   115   116     9
  114   112   115   117     9
  114   112   115   118     9
  112   115   118   119     9
  112   115   118   120     9
  112   115   118   121     9
  116   115   118   119     9
  116   115   118   120     9
  116   115   118   121     9
  117   115   118   119     9
  117   115   118   120     9
  117   115   118   121     9
  115   118   121   122     9
  115   118   121   123     9
  115   118   121   124     9
  119   118   121   122     9
  119   118   121   123     9
  119   118   121   124     9
  120   118   121   122     9
  120   118   121   123     9
  120   118   121   124     9
  118   121   124   125     9
  118   121   124   126     9
  118   121   124   127     9
  122   121   124   125     9
  122   121   124   126     9
  122   121   124   127     9
  123   121   124   125     9
  123   121   124   126     9
  123   121   124   127     9
  121   124   127   128     9
  121   124   127   129     9
  121   124   127   130     9
  125   124   127   128     9
  125   124   127   129     9
  125   124   127   130     9
  126   124   127   128     9
  126   124   127   129     9
  126   124   127   130     9
  124   127   130   131     9
  124   127   130   132     9
  124   127   130   133     9
  128   127   130   131     9
  128   127   130   132     9
  128   127   130   133     9
  129   127   130   131     9
  129   127   130   132     9
  129   127   130   133     9
  127   130   133   134     9
  127   130   133   135     9
  127   130   133   136     9
  131   130   133   134     9
  131   130   133   135     9
  131   130   133   136     9
  132   130   133   134     9
  132   130   133   135     9
  132   130   133   136     9

[ dihedrals ]
; ai	aj	ak	al	funct	q0	cq
   22    21    24    23     2

#ifdef POSRES
[ position_restraints ]
   11     1     0.0             0.0            POSRES_FC_LIPID
#endif

#ifdef DIHRES
[ dihedral_restraints ]
   16    27    19    21     1   -120.0      2.5       DIHRES_FC
   30    31    33    88     1      0.0      0.0       DIHRES_FC
   44    47    49    51     1      0.0      0.0       DIHRES_FC
   51    54    56    58     1      0.0      0.0       DIHRES_FC
   58    61    63    65     1      0.0      0.0       DIHRES_FC
   65    68    70    72     1      0.0      0.0       DIHRES_FC
#endif
