;;
;; Generated by CHARMM-GUI FF-Converter
;;
;; Correspondance:
;; jul316@lehigh.edu or wonpil@lehigh.edu
;;
;; GROMACS topology file for PSGL
;;


[ moleculetype ]
; name	nrexcl
PSGL	     3

[ atoms ]
; nr	type	resnr	residu	atom	cgnr	charge	mass
     1       CTL2    174     PSGL     C1      1     0.050000    12.0110   ; qtot  0.050
     2       HAL2    174     PSGL     HA      2     0.090000     1.0080   ; qtot  0.140
     3       HAL2    174     PSGL     HB      3     0.090000     1.0080   ; qtot  0.230
     4        OHL    174     PSGL    O11      4    -0.650000    15.9994   ; qtot -0.420
     5        HOL    174     PSGL    HO1      5     0.420000     1.0080   ; qtot -0.000
     6       CTL1    174     PSGL     C2      6     0.170000    12.0110   ; qtot  0.170
     7       HAL1    174     PSGL     HS      7     0.090000     1.0080   ; qtot  0.260
     8        OSL    174     PSGL    O21      8    -0.490000    15.9994   ; qtot -0.230
     9         CL    174     PSGL    C21      9     0.900000    12.0110   ; qtot  0.670
    10        OBL    174     PSGL    O22     10    -0.630000    15.9994   ; qtot  0.040
    11       CTL2    174     PSGL    C22     11    -0.220000    12.0110   ; qtot -0.180
    12       HAL2    174     PSGL    H2R     12     0.090000     1.0080   ; qtot -0.090
    13       HAL2    174     PSGL    H2S     13     0.090000     1.0080   ; qtot -0.000
    14       CTL2    174     PSGL     C3     14     0.080000    12.0110   ; qtot  0.080
    15       HAL2    174     PSGL     HX     15     0.090000     1.0080   ; qtot  0.170
    16       HAL2    174     PSGL     HY     16     0.090000     1.0080   ; qtot  0.260
    17        OSL    174     PSGL    O31     17    -0.490000    15.9994   ; qtot -0.230
    18         CL    174     PSGL    C31     18     0.900000    12.0110   ; qtot  0.670
    19        OBL    174     PSGL    O32     19    -0.630000    15.9994   ; qtot  0.040
    20       CTL2    174     PSGL    C32     20    -0.220000    12.0110   ; qtot -0.180
    21       HAL2    174     PSGL    H2X     21     0.090000     1.0080   ; qtot -0.090
    22       HAL2    174     PSGL    H2Y     22     0.090000     1.0080   ; qtot -0.000
    23       CTL2    174     PSGL    C23     23    -0.180000    12.0110   ; qtot -0.180
    24       HAL2    174     PSGL    H3R     24     0.090000     1.0080   ; qtot -0.090
    25       HAL2    174     PSGL    H3S     25     0.090000     1.0080   ; qtot -0.000
    26       CTL2    174     PSGL    C24     26    -0.180000    12.0110   ; qtot -0.180
    27       HAL2    174     PSGL    H4R     27     0.090000     1.0080   ; qtot -0.090
    28       HAL2    174     PSGL    H4S     28     0.090000     1.0080   ; qtot -0.000
    29       CTL2    174     PSGL    C25     29    -0.180000    12.0110   ; qtot -0.180
    30       HAL2    174     PSGL    H5R     30     0.090000     1.0080   ; qtot -0.090
    31       HAL2    174     PSGL    H5S     31     0.090000     1.0080   ; qtot -0.000
    32       CTL2    174     PSGL    C26     32    -0.180000    12.0110   ; qtot -0.180
    33       HAL2    174     PSGL    H6R     33     0.090000     1.0080   ; qtot -0.090
    34       HAL2    174     PSGL    H6S     34     0.090000     1.0080   ; qtot -0.000
    35       CTL2    174     PSGL    C27     35    -0.180000    12.0110   ; qtot -0.180
    36       HAL2    174     PSGL    H7R     36     0.090000     1.0080   ; qtot -0.090
    37       HAL2    174     PSGL    H7S     37     0.090000     1.0080   ; qtot -0.000
    38       CTL2    174     PSGL    C28     38    -0.180000    12.0110   ; qtot -0.180
    39       HAL2    174     PSGL    H8R     39     0.090000     1.0080   ; qtot -0.090
    40       HAL2    174     PSGL    H8S     40     0.090000     1.0080   ; qtot -0.000
    41       CTL2    174     PSGL    C29     41    -0.180000    12.0110   ; qtot -0.180
    42       HAL2    174     PSGL    H9R     42     0.090000     1.0080   ; qtot -0.090
    43       HAL2    174     PSGL    H9S     43     0.090000     1.0080   ; qtot -0.000
    44       CTL2    174     PSGL   C210     44    -0.180000    12.0110   ; qtot -0.180
    45       HAL2    174     PSGL   H10R     45     0.090000     1.0080   ; qtot -0.090
    46       HAL2    174     PSGL   H10S     46     0.090000     1.0080   ; qtot -0.000
    47       CTL2    174     PSGL   C211     47    -0.180000    12.0110   ; qtot -0.180
    48       HAL2    174     PSGL   H11R     48     0.090000     1.0080   ; qtot -0.090
    49       HAL2    174     PSGL   H11S     49     0.090000     1.0080   ; qtot -0.000
    50       CTL2    174     PSGL   C212     50    -0.180000    12.0110   ; qtot -0.180
    51       HAL2    174     PSGL   H12R     51     0.090000     1.0080   ; qtot -0.090
    52       HAL2    174     PSGL   H12S     52     0.090000     1.0080   ; qtot -0.000
    53       CTL2    174     PSGL   C213     53    -0.180000    12.0110   ; qtot -0.180
    54       HAL2    174     PSGL   H13R     54     0.090000     1.0080   ; qtot -0.090
    55       HAL2    174     PSGL   H13S     55     0.090000     1.0080   ; qtot -0.000
    56       CTL2    174     PSGL   C214     56    -0.180000    12.0110   ; qtot -0.180
    57       HAL2    174     PSGL   H14R     57     0.090000     1.0080   ; qtot -0.090
    58       HAL2    174     PSGL   H14S     58     0.090000     1.0080   ; qtot -0.000
    59       CTL2    174     PSGL   C215     59    -0.180000    12.0110   ; qtot -0.180
    60       HAL2    174     PSGL   H15R     60     0.090000     1.0080   ; qtot -0.090
    61       HAL2    174     PSGL   H15S     61     0.090000     1.0080   ; qtot -0.000
    62       CTL2    174     PSGL   C216     62    -0.180000    12.0110   ; qtot -0.180
    63       HAL2    174     PSGL   H16R     63     0.090000     1.0080   ; qtot -0.090
    64       HAL2    174     PSGL   H16S     64     0.090000     1.0080   ; qtot -0.000
    65       CTL2    174     PSGL   C217     65    -0.180000    12.0110   ; qtot -0.180
    66       HAL2    174     PSGL   H17R     66     0.090000     1.0080   ; qtot -0.090
    67       HAL2    174     PSGL   H17S     67     0.090000     1.0080   ; qtot -0.000
    68       CTL3    174     PSGL   C218     68    -0.270000    12.0110   ; qtot -0.270
    69       HAL3    174     PSGL   H18R     69     0.090000     1.0080   ; qtot -0.180
    70       HAL3    174     PSGL   H18S     70     0.090000     1.0080   ; qtot -0.090
    71       HAL3    174     PSGL   H18T     71     0.090000     1.0080   ; qtot -0.000
    72       CTL2    174     PSGL    C33     72    -0.180000    12.0110   ; qtot -0.180
    73       HAL2    174     PSGL    H3X     73     0.090000     1.0080   ; qtot -0.090
    74       HAL2    174     PSGL    H3Y     74     0.090000     1.0080   ; qtot -0.000
    75       CTL2    174     PSGL    C34     75    -0.180000    12.0110   ; qtot -0.180
    76       HAL2    174     PSGL    H4X     76     0.090000     1.0080   ; qtot -0.090
    77       HAL2    174     PSGL    H4Y     77     0.090000     1.0080   ; qtot -0.000
    78       CTL2    174     PSGL    C35     78    -0.180000    12.0110   ; qtot -0.180
    79       HAL2    174     PSGL    H5X     79     0.090000     1.0080   ; qtot -0.090
    80       HAL2    174     PSGL    H5Y     80     0.090000     1.0080   ; qtot -0.000
    81       CTL2    174     PSGL    C36     81    -0.180000    12.0110   ; qtot -0.180
    82       HAL2    174     PSGL    H6X     82     0.090000     1.0080   ; qtot -0.090
    83       HAL2    174     PSGL    H6Y     83     0.090000     1.0080   ; qtot -0.000
    84       CTL2    174     PSGL    C37     84    -0.180000    12.0110   ; qtot -0.180
    85       HAL2    174     PSGL    H7X     85     0.090000     1.0080   ; qtot -0.090
    86       HAL2    174     PSGL    H7Y     86     0.090000     1.0080   ; qtot -0.000
    87       CTL2    174     PSGL    C38     87    -0.180000    12.0110   ; qtot -0.180
    88       HAL2    174     PSGL    H8X     88     0.090000     1.0080   ; qtot -0.090
    89       HAL2    174     PSGL    H8Y     89     0.090000     1.0080   ; qtot -0.000
    90       CTL2    174     PSGL    C39     90    -0.180000    12.0110   ; qtot -0.180
    91       HAL2    174     PSGL    H9X     91     0.090000     1.0080   ; qtot -0.090
    92       HAL2    174     PSGL    H9Y     92     0.090000     1.0080   ; qtot -0.000
    93       CTL2    174     PSGL   C310     93    -0.180000    12.0110   ; qtot -0.180
    94       HAL2    174     PSGL   H10X     94     0.090000     1.0080   ; qtot -0.090
    95       HAL2    174     PSGL   H10Y     95     0.090000     1.0080   ; qtot -0.000
    96       CTL2    174     PSGL   C311     96    -0.180000    12.0110   ; qtot -0.180
    97       HAL2    174     PSGL   H11X     97     0.090000     1.0080   ; qtot -0.090
    98       HAL2    174     PSGL   H11Y     98     0.090000     1.0080   ; qtot -0.000
    99       CTL2    174     PSGL   C312     99    -0.180000    12.0110   ; qtot -0.180
   100       HAL2    174     PSGL   H12X    100     0.090000     1.0080   ; qtot -0.090
   101       HAL2    174     PSGL   H12Y    101     0.090000     1.0080   ; qtot -0.000
   102       CTL2    174     PSGL   C313    102    -0.180000    12.0110   ; qtot -0.180
   103       HAL2    174     PSGL   H13X    103     0.090000     1.0080   ; qtot -0.090
   104       HAL2    174     PSGL   H13Y    104     0.090000     1.0080   ; qtot -0.000
   105       CTL2    174     PSGL   C314    105    -0.180000    12.0110   ; qtot -0.180
   106       HAL2    174     PSGL   H14X    106     0.090000     1.0080   ; qtot -0.090
   107       HAL2    174     PSGL   H14Y    107     0.090000     1.0080   ; qtot -0.000
   108       CTL2    174     PSGL   C315    108    -0.180000    12.0110   ; qtot -0.180
   109       HAL2    174     PSGL   H15X    109     0.090000     1.0080   ; qtot -0.090
   110       HAL2    174     PSGL   H15Y    110     0.090000     1.0080   ; qtot -0.000
   111       CTL3    174     PSGL   C316    111    -0.270000    12.0110   ; qtot -0.270
   112       HAL3    174     PSGL   H16X    112     0.090000     1.0080   ; qtot -0.180
   113       HAL3    174     PSGL   H16Y    113     0.090000     1.0080   ; qtot -0.090
   114       HAL3    174     PSGL   H16Z    114     0.090000     1.0080   ; qtot -0.000

[ bonds ]
; ai	aj	funct	b0	Kb
    1     2     1
    1     3     1
    1     4     1
    1     6     1
    4     5     1
    6     7     1
    6     8     1
    6    14     1
    8     9     1
    9    10     1
    9    11     1
   11    12     1
   11    13     1
   11    23     1
   14    15     1
   14    16     1
   14    17     1
   17    18     1
   18    19     1
   18    20     1
   20    21     1
   20    22     1
   20    72     1
   23    24     1
   23    25     1
   23    26     1
   26    27     1
   26    28     1
   26    29     1
   29    30     1
   29    31     1
   29    32     1
   32    33     1
   32    34     1
   32    35     1
   35    36     1
   35    37     1
   35    38     1
   38    39     1
   38    40     1
   38    41     1
   41    42     1
   41    43     1
   41    44     1
   44    45     1
   44    46     1
   44    47     1
   47    48     1
   47    49     1
   47    50     1
   50    51     1
   50    52     1
   50    53     1
   53    54     1
   53    55     1
   53    56     1
   56    57     1
   56    58     1
   56    59     1
   59    60     1
   59    61     1
   59    62     1
   62    63     1
   62    64     1
   62    65     1
   65    66     1
   65    67     1
   65    68     1
   68    69     1
   68    70     1
   68    71     1
   72    73     1
   72    74     1
   72    75     1
   75    76     1
   75    77     1
   75    78     1
   78    79     1
   78    80     1
   78    81     1
   81    82     1
   81    83     1
   81    84     1
   84    85     1
   84    86     1
   84    87     1
   87    88     1
   87    89     1
   87    90     1
   90    91     1
   90    92     1
   90    93     1
   93    94     1
   93    95     1
   93    96     1
   96    97     1
   96    98     1
   96    99     1
   99   100     1
   99   101     1
   99   102     1
  102   103     1
  102   104     1
  102   105     1
  105   106     1
  105   107     1
  105   108     1
  108   109     1
  108   110     1
  108   111     1
  111   112     1
  111   113     1
  111   114     1

[ pairs ]
; ai	aj	funct	c6	c12 or
; ai	aj	funct	fudgeQQ	q1	q2	c6	c12
    1     9     1
    1    15     1
    1    16     1
    1    17     1
    2     5     1
    2     7     1
    2     8     1
    2    14     1
    3     5     1
    3     7     1
    3     8     1
    3    14     1
    4     7     1
    4     8     1
    4    14     1
    5     6     1
    6    10     1
    6    11     1
    6    18     1
    7     9     1
    7    15     1
    7    16     1
    7    17     1
    8    12     1
    8    13     1
    8    15     1
    8    16     1
    8    17     1
    8    23     1
    9    14     1
    9    24     1
    9    25     1
    9    26     1
   10    12     1
   10    13     1
   10    23     1
   11    27     1
   11    28     1
   11    29     1
   12    24     1
   12    25     1
   12    26     1
   13    24     1
   13    25     1
   13    26     1
   14    19     1
   14    20     1
   15    18     1
   16    18     1
   17    21     1
   17    22     1
   17    72     1
   18    73     1
   18    74     1
   18    75     1
   19    21     1
   19    22     1
   19    72     1
   20    76     1
   20    77     1
   20    78     1
   21    73     1
   21    74     1
   21    75     1
   22    73     1
   22    74     1
   22    75     1
   23    30     1
   23    31     1
   23    32     1
   24    27     1
   24    28     1
   24    29     1
   25    27     1
   25    28     1
   25    29     1
   26    33     1
   26    34     1
   26    35     1
   27    30     1
   27    31     1
   27    32     1
   28    30     1
   28    31     1
   28    32     1
   29    36     1
   29    37     1
   29    38     1
   30    33     1
   30    34     1
   30    35     1
   31    33     1
   31    34     1
   31    35     1
   32    39     1
   32    40     1
   32    41     1
   33    36     1
   33    37     1
   33    38     1
   34    36     1
   34    37     1
   34    38     1
   35    42     1
   35    43     1
   35    44     1
   36    39     1
   36    40     1
   36    41     1
   37    39     1
   37    40     1
   37    41     1
   38    45     1
   38    46     1
   38    47     1
   39    42     1
   39    43     1
   39    44     1
   40    42     1
   40    43     1
   40    44     1
   41    48     1
   41    49     1
   41    50     1
   42    45     1
   42    46     1
   42    47     1
   43    45     1
   43    46     1
   43    47     1
   44    51     1
   44    52     1
   44    53     1
   45    48     1
   45    49     1
   45    50     1
   46    48     1
   46    49     1
   46    50     1
   47    54     1
   47    55     1
   47    56     1
   48    51     1
   48    52     1
   48    53     1
   49    51     1
   49    52     1
   49    53     1
   50    57     1
   50    58     1
   50    59     1
   51    54     1
   51    55     1
   51    56     1
   52    54     1
   52    55     1
   52    56     1
   53    60     1
   53    61     1
   53    62     1
   54    57     1
   54    58     1
   54    59     1
   55    57     1
   55    58     1
   55    59     1
   56    63     1
   56    64     1
   56    65     1
   57    60     1
   57    61     1
   57    62     1
   58    60     1
   58    61     1
   58    62     1
   59    66     1
   59    67     1
   59    68     1
   60    63     1
   60    64     1
   60    65     1
   61    63     1
   61    64     1
   61    65     1
   62    69     1
   62    70     1
   62    71     1
   63    66     1
   63    67     1
   63    68     1
   64    66     1
   64    67     1
   64    68     1
   66    69     1
   66    70     1
   66    71     1
   67    69     1
   67    70     1
   67    71     1
   72    79     1
   72    80     1
   72    81     1
   73    76     1
   73    77     1
   73    78     1
   74    76     1
   74    77     1
   74    78     1
   75    82     1
   75    83     1
   75    84     1
   76    79     1
   76    80     1
   76    81     1
   77    79     1
   77    80     1
   77    81     1
   78    85     1
   78    86     1
   78    87     1
   79    82     1
   79    83     1
   79    84     1
   80    82     1
   80    83     1
   80    84     1
   81    88     1
   81    89     1
   81    90     1
   82    85     1
   82    86     1
   82    87     1
   83    85     1
   83    86     1
   83    87     1
   84    91     1
   84    92     1
   84    93     1
   85    88     1
   85    89     1
   85    90     1
   86    88     1
   86    89     1
   86    90     1
   87    94     1
   87    95     1
   87    96     1
   88    91     1
   88    92     1
   88    93     1
   89    91     1
   89    92     1
   89    93     1
   90    97     1
   90    98     1
   90    99     1
   91    94     1
   91    95     1
   91    96     1
   92    94     1
   92    95     1
   92    96     1
   93   100     1
   93   101     1
   93   102     1
   94    97     1
   94    98     1
   94    99     1
   95    97     1
   95    98     1
   95    99     1
   96   103     1
   96   104     1
   96   105     1
   97   100     1
   97   101     1
   97   102     1
   98   100     1
   98   101     1
   98   102     1
   99   106     1
   99   107     1
   99   108     1
  100   103     1
  100   104     1
  100   105     1
  101   103     1
  101   104     1
  101   105     1
  102   109     1
  102   110     1
  102   111     1
  103   106     1
  103   107     1
  103   108     1
  104   106     1
  104   107     1
  104   108     1
  105   112     1
  105   113     1
  105   114     1
  106   109     1
  106   110     1
  106   111     1
  107   109     1
  107   110     1
  107   111     1
  109   112     1
  109   113     1
  109   114     1
  110   112     1
  110   113     1
  110   114     1

[ angles ] 
; ai	aj	ak	funct	th0	cth	S0	Kub
    2     1     3     5
    2     1     4     5
    2     1     6     5
    3     1     4     5
    3     1     6     5
    4     1     6     5
    1     4     5     5
    1     6     7     5
    1     6     8     5
    1     6    14     5
    7     6     8     5
    7     6    14     5
    8     6    14     5
    6     8     9     5
    8     9    10     5
    8     9    11     5
   10     9    11     5
    9    11    12     5
    9    11    13     5
    9    11    23     5
   12    11    13     5
   12    11    23     5
   13    11    23     5
    6    14    15     5
    6    14    16     5
    6    14    17     5
   15    14    16     5
   15    14    17     5
   16    14    17     5
   14    17    18     5
   17    18    19     5
   17    18    20     5
   19    18    20     5
   18    20    21     5
   18    20    22     5
   18    20    72     5
   21    20    22     5
   21    20    72     5
   22    20    72     5
   11    23    24     5
   11    23    25     5
   11    23    26     5
   24    23    25     5
   24    23    26     5
   25    23    26     5
   23    26    27     5
   23    26    28     5
   23    26    29     5
   27    26    28     5
   27    26    29     5
   28    26    29     5
   26    29    30     5
   26    29    31     5
   26    29    32     5
   30    29    31     5
   30    29    32     5
   31    29    32     5
   29    32    33     5
   29    32    34     5
   29    32    35     5
   33    32    34     5
   33    32    35     5
   34    32    35     5
   32    35    36     5
   32    35    37     5
   32    35    38     5
   36    35    37     5
   36    35    38     5
   37    35    38     5
   35    38    39     5
   35    38    40     5
   35    38    41     5
   39    38    40     5
   39    38    41     5
   40    38    41     5
   38    41    42     5
   38    41    43     5
   38    41    44     5
   42    41    43     5
   42    41    44     5
   43    41    44     5
   41    44    45     5
   41    44    46     5
   41    44    47     5
   45    44    46     5
   45    44    47     5
   46    44    47     5
   44    47    48     5
   44    47    49     5
   44    47    50     5
   48    47    49     5
   48    47    50     5
   49    47    50     5
   47    50    51     5
   47    50    52     5
   47    50    53     5
   51    50    52     5
   51    50    53     5
   52    50    53     5
   50    53    54     5
   50    53    55     5
   50    53    56     5
   54    53    55     5
   54    53    56     5
   55    53    56     5
   53    56    57     5
   53    56    58     5
   53    56    59     5
   57    56    58     5
   57    56    59     5
   58    56    59     5
   56    59    60     5
   56    59    61     5
   56    59    62     5
   60    59    61     5
   60    59    62     5
   61    59    62     5
   59    62    63     5
   59    62    64     5
   59    62    65     5
   63    62    64     5
   63    62    65     5
   64    62    65     5
   62    65    66     5
   62    65    67     5
   62    65    68     5
   66    65    67     5
   66    65    68     5
   67    65    68     5
   65    68    69     5
   65    68    70     5
   65    68    71     5
   69    68    70     5
   69    68    71     5
   70    68    71     5
   20    72    73     5
   20    72    74     5
   20    72    75     5
   73    72    74     5
   73    72    75     5
   74    72    75     5
   72    75    76     5
   72    75    77     5
   72    75    78     5
   76    75    77     5
   76    75    78     5
   77    75    78     5
   75    78    79     5
   75    78    80     5
   75    78    81     5
   79    78    80     5
   79    78    81     5
   80    78    81     5
   78    81    82     5
   78    81    83     5
   78    81    84     5
   82    81    83     5
   82    81    84     5
   83    81    84     5
   81    84    85     5
   81    84    86     5
   81    84    87     5
   85    84    86     5
   85    84    87     5
   86    84    87     5
   84    87    88     5
   84    87    89     5
   84    87    90     5
   88    87    89     5
   88    87    90     5
   89    87    90     5
   87    90    91     5
   87    90    92     5
   87    90    93     5
   91    90    92     5
   91    90    93     5
   92    90    93     5
   90    93    94     5
   90    93    95     5
   90    93    96     5
   94    93    95     5
   94    93    96     5
   95    93    96     5
   93    96    97     5
   93    96    98     5
   93    96    99     5
   97    96    98     5
   97    96    99     5
   98    96    99     5
   96    99   100     5
   96    99   101     5
   96    99   102     5
  100    99   101     5
  100    99   102     5
  101    99   102     5
   99   102   103     5
   99   102   104     5
   99   102   105     5
  103   102   104     5
  103   102   105     5
  104   102   105     5
  102   105   106     5
  102   105   107     5
  102   105   108     5
  106   105   107     5
  106   105   108     5
  107   105   108     5
  105   108   109     5
  105   108   110     5
  105   108   111     5
  109   108   110     5
  109   108   111     5
  110   108   111     5
  108   111   112     5
  108   111   113     5
  108   111   114     5
  112   111   113     5
  112   111   114     5
  113   111   114     5

[ dihedrals ]
; ai	aj	ak	al	funct	phi0	cp	mult
    2     1     4     5     9
    3     1     4     5     9
    2     1     6     7     9
    2     1     6     8     9
    2     1     6    14     9
    3     1     6     7     9
    3     1     6     8     9
    3     1     6    14     9
    4     1     6     7     9
    4     1     6     8     9
    4     1     6    14     9
    5     4     1     6     9
    1     6     8     9     9
    7     6     8     9     9
    1     6    14    15     9
    1     6    14    16     9
    1     6    14    17     9
    7     6    14    15     9
    7     6    14    16     9
    7     6    14    17     9
    8     6    14    15     9
    8     6    14    16     9
    8     6    14    17     9
    9     8     6    14     9
    6     8     9    10     9
    6     8     9    11     9
    8     9    11    12     9
    8     9    11    13     9
    8     9    11    23     9
   10     9    11    12     9
   10     9    11    13     9
   10     9    11    23     9
    9    11    23    24     9
    9    11    23    25     9
    9    11    23    26     9
   12    11    23    24     9
   12    11    23    25     9
   12    11    23    26     9
   13    11    23    24     9
   13    11    23    25     9
   13    11    23    26     9
    6    14    17    18     9
   15    14    17    18     9
   16    14    17    18     9
   14    17    18    19     9
   14    17    18    20     9
   17    18    20    21     9
   17    18    20    22     9
   17    18    20    72     9
   19    18    20    21     9
   19    18    20    22     9
   19    18    20    72     9
   18    20    72    73     9
   18    20    72    74     9
   18    20    72    75     9
   21    20    72    73     9
   21    20    72    74     9
   21    20    72    75     9
   22    20    72    73     9
   22    20    72    74     9
   22    20    72    75     9
   11    23    26    27     9
   11    23    26    28     9
   11    23    26    29     9
   24    23    26    27     9
   24    23    26    28     9
   24    23    26    29     9
   25    23    26    27     9
   25    23    26    28     9
   25    23    26    29     9
   23    26    29    30     9
   23    26    29    31     9
   23    26    29    32     9
   27    26    29    30     9
   27    26    29    31     9
   27    26    29    32     9
   28    26    29    30     9
   28    26    29    31     9
   28    26    29    32     9
   26    29    32    33     9
   26    29    32    34     9
   26    29    32    35     9
   30    29    32    33     9
   30    29    32    34     9
   30    29    32    35     9
   31    29    32    33     9
   31    29    32    34     9
   31    29    32    35     9
   29    32    35    36     9
   29    32    35    37     9
   29    32    35    38     9
   33    32    35    36     9
   33    32    35    37     9
   33    32    35    38     9
   34    32    35    36     9
   34    32    35    37     9
   34    32    35    38     9
   32    35    38    39     9
   32    35    38    40     9
   32    35    38    41     9
   36    35    38    39     9
   36    35    38    40     9
   36    35    38    41     9
   37    35    38    39     9
   37    35    38    40     9
   37    35    38    41     9
   35    38    41    42     9
   35    38    41    43     9
   35    38    41    44     9
   39    38    41    42     9
   39    38    41    43     9
   39    38    41    44     9
   40    38    41    42     9
   40    38    41    43     9
   40    38    41    44     9
   38    41    44    45     9
   38    41    44    46     9
   38    41    44    47     9
   42    41    44    45     9
   42    41    44    46     9
   42    41    44    47     9
   43    41    44    45     9
   43    41    44    46     9
   43    41    44    47     9
   41    44    47    48     9
   41    44    47    49     9
   41    44    47    50     9
   45    44    47    48     9
   45    44    47    49     9
   45    44    47    50     9
   46    44    47    48     9
   46    44    47    49     9
   46    44    47    50     9
   44    47    50    51     9
   44    47    50    52     9
   44    47    50    53     9
   48    47    50    51     9
   48    47    50    52     9
   48    47    50    53     9
   49    47    50    51     9
   49    47    50    52     9
   49    47    50    53     9
   47    50    53    54     9
   47    50    53    55     9
   47    50    53    56     9
   51    50    53    54     9
   51    50    53    55     9
   51    50    53    56     9
   52    50    53    54     9
   52    50    53    55     9
   52    50    53    56     9
   50    53    56    57     9
   50    53    56    58     9
   50    53    56    59     9
   54    53    56    57     9
   54    53    56    58     9
   54    53    56    59     9
   55    53    56    57     9
   55    53    56    58     9
   55    53    56    59     9
   53    56    59    60     9
   53    56    59    61     9
   53    56    59    62     9
   57    56    59    60     9
   57    56    59    61     9
   57    56    59    62     9
   58    56    59    60     9
   58    56    59    61     9
   58    56    59    62     9
   56    59    62    63     9
   56    59    62    64     9
   56    59    62    65     9
   60    59    62    63     9
   60    59    62    64     9
   60    59    62    65     9
   61    59    62    63     9
   61    59    62    64     9
   61    59    62    65     9
   59    62    65    66     9
   59    62    65    67     9
   59    62    65    68     9
   63    62    65    66     9
   63    62    65    67     9
   63    62    65    68     9
   64    62    65    66     9
   64    62    65    67     9
   64    62    65    68     9
   62    65    68    69     9
   62    65    68    70     9
   62    65    68    71     9
   66    65    68    69     9
   66    65    68    70     9
   66    65    68    71     9
   67    65    68    69     9
   67    65    68    70     9
   67    65    68    71     9
   20    72    75    76     9
   20    72    75    77     9
   20    72    75    78     9
   73    72    75    76     9
   73    72    75    77     9
   73    72    75    78     9
   74    72    75    76     9
   74    72    75    77     9
   74    72    75    78     9
   72    75    78    79     9
   72    75    78    80     9
   72    75    78    81     9
   76    75    78    79     9
   76    75    78    80     9
   76    75    78    81     9
   77    75    78    79     9
   77    75    78    80     9
   77    75    78    81     9
   75    78    81    82     9
   75    78    81    83     9
   75    78    81    84     9
   79    78    81    82     9
   79    78    81    83     9
   79    78    81    84     9
   80    78    81    82     9
   80    78    81    83     9
   80    78    81    84     9
   78    81    84    85     9
   78    81    84    86     9
   78    81    84    87     9
   82    81    84    85     9
   82    81    84    86     9
   82    81    84    87     9
   83    81    84    85     9
   83    81    84    86     9
   83    81    84    87     9
   81    84    87    88     9
   81    84    87    89     9
   81    84    87    90     9
   85    84    87    88     9
   85    84    87    89     9
   85    84    87    90     9
   86    84    87    88     9
   86    84    87    89     9
   86    84    87    90     9
   84    87    90    91     9
   84    87    90    92     9
   84    87    90    93     9
   88    87    90    91     9
   88    87    90    92     9
   88    87    90    93     9
   89    87    90    91     9
   89    87    90    92     9
   89    87    90    93     9
   87    90    93    94     9
   87    90    93    95     9
   87    90    93    96     9
   91    90    93    94     9
   91    90    93    95     9
   91    90    93    96     9
   92    90    93    94     9
   92    90    93    95     9
   92    90    93    96     9
   90    93    96    97     9
   90    93    96    98     9
   90    93    96    99     9
   94    93    96    97     9
   94    93    96    98     9
   94    93    96    99     9
   95    93    96    97     9
   95    93    96    98     9
   95    93    96    99     9
   93    96    99   100     9
   93    96    99   101     9
   93    96    99   102     9
   97    96    99   100     9
   97    96    99   101     9
   97    96    99   102     9
   98    96    99   100     9
   98    96    99   101     9
   98    96    99   102     9
   96    99   102   103     9
   96    99   102   104     9
   96    99   102   105     9
  100    99   102   103     9
  100    99   102   104     9
  100    99   102   105     9
  101    99   102   103     9
  101    99   102   104     9
  101    99   102   105     9
   99   102   105   106     9
   99   102   105   107     9
   99   102   105   108     9
  103   102   105   106     9
  103   102   105   107     9
  103   102   105   108     9
  104   102   105   106     9
  104   102   105   107     9
  104   102   105   108     9
  102   105   108   109     9
  102   105   108   110     9
  102   105   108   111     9
  106   105   108   109     9
  106   105   108   110     9
  106   105   108   111     9
  107   105   108   109     9
  107   105   108   110     9
  107   105   108   111     9
  105   108   111   112     9
  105   108   111   113     9
  105   108   111   114     9
  109   108   111   112     9
  109   108   111   113     9
  109   108   111   114     9
  110   108   111   112     9
  110   108   111   113     9
  110   108   111   114     9

[ dihedrals ]
; ai	aj	ak	al	funct	q0	cq
    9     8    11    10     2
   18    17    20    19     2

#ifdef POSRES
[ position_restraints ]
#endif

#ifdef DIHRES
[ dihedral_restraints ]
    1    14     6     8     1   -120.0      2.5       DIHRES_FC
#endif
