;;
;; Generated by CHARMM-GUI FF-Converter
;;
;; Correspondance:
;; jul316@lehigh.edu or wonpil@lehigh.edu
;;
;; GROMACS topology file for PSLTG
;;


[ moleculetype ]
; name	nrexcl
PSLTG	     3

[ atoms ]
; nr	type	resnr	residu	atom	cgnr	charge	mass
     1       CTL2     16    PSLTG     C1      1     0.080000    12.0110   ; qtot  0.080
     2       HAL2     16    PSLTG     HA      2     0.090000     1.0080   ; qtot  0.170
     3       HAL2     16    PSLTG     HB      3     0.090000     1.0080   ; qtot  0.260
     4        OSL     16    PSLTG    O11      4    -0.490000    15.9994   ; qtot -0.230
     5        OBL     16    PSLTG    O12      5    -0.630000    15.9994   ; qtot -0.860
     6         CL     16    PSLTG    C11      6     0.900000    12.0110   ; qtot  0.040
     7       CTL2     16    PSLTG    C12      7    -0.220000    12.0110   ; qtot -0.180
     8       HAL2     16    PSLTG    H2P      8     0.090000     1.0080   ; qtot -0.090
     9       HAL2     16    PSLTG    H2Q      9     0.090000     1.0080   ; qtot  0.000
    10       CTL1     16    PSLTG     C2     10     0.170000    12.0110   ; qtot  0.170
    11       HAL1     16    PSLTG     HS     11     0.090000     1.0080   ; qtot  0.260
    12        OSL     16    PSLTG    O21     12    -0.490000    15.9994   ; qtot -0.230
    13         CL     16    PSLTG    C21     13     0.900000    12.0110   ; qtot  0.670
    14        OBL     16    PSLTG    O22     14    -0.630000    15.9994   ; qtot  0.040
    15       CTL2     16    PSLTG    C22     15    -0.220000    12.0110   ; qtot -0.180
    16       HAL2     16    PSLTG    H2R     16     0.090000     1.0080   ; qtot -0.090
    17       HAL2     16    PSLTG    H2S     17     0.090000     1.0080   ; qtot  0.000
    18       CTL2     16    PSLTG     C3     18     0.080000    12.0110   ; qtot  0.080
    19       HAL2     16    PSLTG     HX     19     0.090000     1.0080   ; qtot  0.170
    20       HAL2     16    PSLTG     HY     20     0.090000     1.0080   ; qtot  0.260
    21        OSL     16    PSLTG    O31     21    -0.490000    15.9994   ; qtot -0.230
    22         CL     16    PSLTG    C31     22     0.900000    12.0110   ; qtot  0.670
    23        OBL     16    PSLTG    O32     23    -0.630000    15.9994   ; qtot  0.040
    24       CTL2     16    PSLTG    C32     24    -0.220000    12.0110   ; qtot -0.180
    25       HAL2     16    PSLTG    H2X     25     0.090000     1.0080   ; qtot -0.090
    26       HAL2     16    PSLTG    H2Y     26     0.090000     1.0080   ; qtot  0.000
    27       CTL2     16    PSLTG    C13     27    -0.180000    12.0110   ; qtot -0.180
    28       HAL2     16    PSLTG    H3P     28     0.090000     1.0080   ; qtot -0.090
    29       HAL2     16    PSLTG    H3Q     29     0.090000     1.0080   ; qtot  0.000
    30       CTL2     16    PSLTG    C14     30    -0.180000    12.0110   ; qtot -0.180
    31       HAL2     16    PSLTG    H4P     31     0.090000     1.0080   ; qtot -0.090
    32       HAL2     16    PSLTG    H4Q     32     0.090000     1.0080   ; qtot  0.000
    33       CTL2     16    PSLTG    C15     33    -0.180000    12.0110   ; qtot -0.180
    34       HAL2     16    PSLTG    H5P     34     0.090000     1.0080   ; qtot -0.090
    35       HAL2     16    PSLTG    H5Q     35     0.090000     1.0080   ; qtot  0.000
    36       CTL2     16    PSLTG    C16     36    -0.180000    12.0110   ; qtot -0.180
    37       HAL2     16    PSLTG    H6P     37     0.090000     1.0080   ; qtot -0.090
    38       HAL2     16    PSLTG    H6Q     38     0.090000     1.0080   ; qtot  0.000
    39       CTL2     16    PSLTG    C17     39    -0.180000    12.0110   ; qtot -0.180
    40       HAL2     16    PSLTG    H7P     40     0.090000     1.0080   ; qtot -0.090
    41       HAL2     16    PSLTG    H7Q     41     0.090000     1.0080   ; qtot  0.000
    42       CTL2     16    PSLTG    C18     42    -0.180000    12.0110   ; qtot -0.180
    43       HAL2     16    PSLTG    H8P     43     0.090000     1.0080   ; qtot -0.090
    44       HAL2     16    PSLTG    H8Q     44     0.090000     1.0080   ; qtot  0.000
    45       CTL2     16    PSLTG    C19     45    -0.180000    12.0110   ; qtot -0.180
    46       HAL2     16    PSLTG    H9P     46     0.090000     1.0080   ; qtot -0.090
    47       HAL2     16    PSLTG    H9Q     47     0.090000     1.0080   ; qtot  0.000
    48       CTL2     16    PSLTG   C110     48    -0.180000    12.0110   ; qtot -0.180
    49       HAL2     16    PSLTG   H10P     49     0.090000     1.0080   ; qtot -0.090
    50       HAL2     16    PSLTG   H10Q     50     0.090000     1.0080   ; qtot  0.000
    51       CTL2     16    PSLTG   C111     51    -0.180000    12.0110   ; qtot -0.180
    52       HAL2     16    PSLTG   H11P     52     0.090000     1.0080   ; qtot -0.090
    53       HAL2     16    PSLTG   H11Q     53     0.090000     1.0080   ; qtot  0.000
    54       CTL2     16    PSLTG   C112     54    -0.180000    12.0110   ; qtot -0.180
    55       HAL2     16    PSLTG   H12P     55     0.090000     1.0080   ; qtot -0.090
    56       HAL2     16    PSLTG   H12Q     56     0.090000     1.0080   ; qtot  0.000
    57       CTL2     16    PSLTG   C113     57    -0.180000    12.0110   ; qtot -0.180
    58       HAL2     16    PSLTG   H13P     58     0.090000     1.0080   ; qtot -0.090
    59       HAL2     16    PSLTG   H13Q     59     0.090000     1.0080   ; qtot  0.000
    60       CTL2     16    PSLTG   C114     60    -0.180000    12.0110   ; qtot -0.180
    61       HAL2     16    PSLTG   H14P     61     0.090000     1.0080   ; qtot -0.090
    62       HAL2     16    PSLTG   H14Q     62     0.090000     1.0080   ; qtot  0.000
    63       CTL2     16    PSLTG   C115     63    -0.180000    12.0110   ; qtot -0.180
    64       HAL2     16    PSLTG   H15P     64     0.090000     1.0080   ; qtot -0.090
    65       HAL2     16    PSLTG   H15Q     65     0.090000     1.0080   ; qtot  0.000
    66       CTL3     16    PSLTG   C116     66    -0.270000    12.0110   ; qtot -0.270
    67       HAL3     16    PSLTG   H16P     67     0.090000     1.0080   ; qtot -0.180
    68       HAL3     16    PSLTG   H16Q     68     0.090000     1.0080   ; qtot -0.090
    69       HAL3     16    PSLTG   H16O     69     0.090000     1.0080   ; qtot -0.000
    70       CTL2     16    PSLTG    C23     70    -0.180000    12.0110   ; qtot -0.180
    71       HAL2     16    PSLTG    H3R     71     0.090000     1.0080   ; qtot -0.090
    72       HAL2     16    PSLTG    H3S     72     0.090000     1.0080   ; qtot -0.000
    73       CTL2     16    PSLTG    C24     73    -0.180000    12.0110   ; qtot -0.180
    74       HAL2     16    PSLTG    H4R     74     0.090000     1.0080   ; qtot -0.090
    75       HAL2     16    PSLTG    H4S     75     0.090000     1.0080   ; qtot -0.000
    76       CTL2     16    PSLTG    C25     76    -0.180000    12.0110   ; qtot -0.180
    77       HAL2     16    PSLTG    H5R     77     0.090000     1.0080   ; qtot -0.090
    78       HAL2     16    PSLTG    H5S     78     0.090000     1.0080   ; qtot -0.000
    79       CTL2     16    PSLTG    C26     79    -0.180000    12.0110   ; qtot -0.180
    80       HAL2     16    PSLTG    H6R     80     0.090000     1.0080   ; qtot -0.090
    81       HAL2     16    PSLTG    H6S     81     0.090000     1.0080   ; qtot -0.000
    82       CTL2     16    PSLTG    C27     82    -0.180000    12.0110   ; qtot -0.180
    83       HAL2     16    PSLTG    H7R     83     0.090000     1.0080   ; qtot -0.090
    84       HAL2     16    PSLTG    H7S     84     0.090000     1.0080   ; qtot -0.000
    85       CTL2     16    PSLTG    C28     85    -0.180000    12.0110   ; qtot -0.180
    86       HAL2     16    PSLTG    H8R     86     0.090000     1.0080   ; qtot -0.090
    87       HAL2     16    PSLTG    H8S     87     0.090000     1.0080   ; qtot -0.000
    88       CTL2     16    PSLTG    C29     88    -0.180000    12.0110   ; qtot -0.180
    89       HAL2     16    PSLTG    H9R     89     0.090000     1.0080   ; qtot -0.090
    90       HAL2     16    PSLTG    H9S     90     0.090000     1.0080   ; qtot -0.000
    91       CTL2     16    PSLTG   C210     91    -0.180000    12.0110   ; qtot -0.180
    92       HAL2     16    PSLTG   H10R     92     0.090000     1.0080   ; qtot -0.090
    93       HAL2     16    PSLTG   H10S     93     0.090000     1.0080   ; qtot -0.000
    94       CTL2     16    PSLTG   C211     94    -0.180000    12.0110   ; qtot -0.180
    95       HAL2     16    PSLTG   H11R     95     0.090000     1.0080   ; qtot -0.090
    96       HAL2     16    PSLTG   H11S     96     0.090000     1.0080   ; qtot -0.000
    97       CTL2     16    PSLTG   C212     97    -0.180000    12.0110   ; qtot -0.180
    98       HAL2     16    PSLTG   H12R     98     0.090000     1.0080   ; qtot -0.090
    99       HAL2     16    PSLTG   H12S     99     0.090000     1.0080   ; qtot -0.000
   100       CTL2     16    PSLTG   C213    100    -0.180000    12.0110   ; qtot -0.180
   101       HAL2     16    PSLTG   H13R    101     0.090000     1.0080   ; qtot -0.090
   102       HAL2     16    PSLTG   H13S    102     0.090000     1.0080   ; qtot -0.000
   103       CTL2     16    PSLTG   C214    103    -0.180000    12.0110   ; qtot -0.180
   104       HAL2     16    PSLTG   H14R    104     0.090000     1.0080   ; qtot -0.090
   105       HAL2     16    PSLTG   H14S    105     0.090000     1.0080   ; qtot -0.000
   106       CTL2     16    PSLTG   C215    106    -0.180000    12.0110   ; qtot -0.180
   107       HAL2     16    PSLTG   H15R    107     0.090000     1.0080   ; qtot -0.090
   108       HAL2     16    PSLTG   H15S    108     0.090000     1.0080   ; qtot -0.000
   109       CTL2     16    PSLTG   C216    109    -0.180000    12.0110   ; qtot -0.180
   110       HAL2     16    PSLTG   H16R    110     0.090000     1.0080   ; qtot -0.090
   111       HAL2     16    PSLTG   H16S    111     0.090000     1.0080   ; qtot -0.000
   112       CTL2     16    PSLTG   C217    112    -0.180000    12.0110   ; qtot -0.180
   113       HAL2     16    PSLTG   H17R    113     0.090000     1.0080   ; qtot -0.090
   114       HAL2     16    PSLTG   H17S    114     0.090000     1.0080   ; qtot -0.000
   115       CTL3     16    PSLTG   C218    115    -0.270000    12.0110   ; qtot -0.270
   116       HAL3     16    PSLTG   H18R    116     0.090000     1.0080   ; qtot -0.180
   117       HAL3     16    PSLTG   H18S    117     0.090000     1.0080   ; qtot -0.090
   118       HAL3     16    PSLTG   H18T    118     0.090000     1.0080   ; qtot -0.000
   119       CTL2     16    PSLTG    C33    119    -0.180000    12.0110   ; qtot -0.180
   120       HAL2     16    PSLTG    H3X    120     0.090000     1.0080   ; qtot -0.090
   121       HAL2     16    PSLTG    H3Y    121     0.090000     1.0080   ; qtot -0.000
   122       CTL2     16    PSLTG    C34    122    -0.180000    12.0110   ; qtot -0.180
   123       HAL2     16    PSLTG    H4X    123     0.090000     1.0080   ; qtot -0.090
   124       HAL2     16    PSLTG    H4Y    124     0.090000     1.0080   ; qtot -0.000
   125       CTL2     16    PSLTG    C35    125    -0.180000    12.0110   ; qtot -0.180
   126       HAL2     16    PSLTG    H5X    126     0.090000     1.0080   ; qtot -0.090
   127       HAL2     16    PSLTG    H5Y    127     0.090000     1.0080   ; qtot -0.000
   128       CTL2     16    PSLTG    C36    128    -0.180000    12.0110   ; qtot -0.180
   129       HAL2     16    PSLTG    H6X    129     0.090000     1.0080   ; qtot -0.090
   130       HAL2     16    PSLTG    H6Y    130     0.090000     1.0080   ; qtot -0.000
   131       CTL2     16    PSLTG    C37    131    -0.180000    12.0110   ; qtot -0.180
   132       HAL2     16    PSLTG    H7X    132     0.090000     1.0080   ; qtot -0.090
   133       HAL2     16    PSLTG    H7Y    133     0.090000     1.0080   ; qtot -0.000
   134       CTL2     16    PSLTG    C38    134    -0.180000    12.0110   ; qtot -0.180
   135       HAL2     16    PSLTG    H8X    135     0.090000     1.0080   ; qtot -0.090
   136       HAL2     16    PSLTG    H8Y    136     0.090000     1.0080   ; qtot -0.000
   137       CEL1     16    PSLTG    C39    137    -0.150000    12.0110   ; qtot -0.150
   138       HEL1     16    PSLTG    H9X    138     0.150000     1.0080   ; qtot -0.000
   139       CEL1     16    PSLTG   C310    139    -0.150000    12.0110   ; qtot -0.150
   140       HEL1     16    PSLTG   H10X    140     0.150000     1.0080   ; qtot -0.000
   141       CTL2     16    PSLTG   C311    141    -0.180000    12.0110   ; qtot -0.180
   142       HAL2     16    PSLTG   H11X    142     0.090000     1.0080   ; qtot -0.090
   143       HAL2     16    PSLTG   H11Y    143     0.090000     1.0080   ; qtot -0.000
   144       CEL1     16    PSLTG   C312    144    -0.150000    12.0110   ; qtot -0.150
   145       HEL1     16    PSLTG   H12X    145     0.150000     1.0080   ; qtot -0.000
   146       CEL1     16    PSLTG   C313    146    -0.150000    12.0110   ; qtot -0.150
   147       HEL1     16    PSLTG   H13X    147     0.150000     1.0080   ; qtot -0.000
   148       CTL2     16    PSLTG   C314    148    -0.180000    12.0110   ; qtot -0.180
   149       HAL2     16    PSLTG   H14X    149     0.090000     1.0080   ; qtot -0.090
   150       HAL2     16    PSLTG   H14Y    150     0.090000     1.0080   ; qtot -0.000
   151       CTL2     16    PSLTG   C315    151    -0.180000    12.0110   ; qtot -0.180
   152       HAL2     16    PSLTG   H15X    152     0.090000     1.0080   ; qtot -0.090
   153       HAL2     16    PSLTG   H15Y    153     0.090000     1.0080   ; qtot -0.000
   154       CTL2     16    PSLTG   C316    154    -0.180000    12.0110   ; qtot -0.180
   155       HAL2     16    PSLTG   H16X    155     0.090000     1.0080   ; qtot -0.090
   156       HAL2     16    PSLTG   H16Y    156     0.090000     1.0080   ; qtot -0.000
   157       CTL2     16    PSLTG   C317    157    -0.180000    12.0110   ; qtot -0.180
   158       HAL2     16    PSLTG   H17X    158     0.090000     1.0080   ; qtot -0.090
   159       HAL2     16    PSLTG   H17Y    159     0.090000     1.0080   ; qtot -0.000
   160       CTL3     16    PSLTG   C318    160    -0.270000    12.0110   ; qtot -0.270
   161       HAL3     16    PSLTG   H18X    161     0.090000     1.0080   ; qtot -0.180
   162       HAL3     16    PSLTG   H18Y    162     0.090000     1.0080   ; qtot -0.090
   163       HAL3     16    PSLTG   H18Z    163     0.090000     1.0080   ; qtot -0.000

[ bonds ]
; ai	aj	funct	b0	Kb
    1     2     1
    1     3     1
    1     4     1
    1    10     1
    4     6     1
    6     5     1
    6     7     1
    7     8     1
    7     9     1
    7    27     1
   10    11     1
   10    12     1
   10    18     1
   12    13     1
   13    14     1
   13    15     1
   15    16     1
   15    17     1
   15    70     1
   18    19     1
   18    20     1
   18    21     1
   21    22     1
   22    23     1
   22    24     1
   24    25     1
   24    26     1
   24   119     1
   27    28     1
   27    29     1
   27    30     1
   30    31     1
   30    32     1
   30    33     1
   33    34     1
   33    35     1
   33    36     1
   36    37     1
   36    38     1
   36    39     1
   39    40     1
   39    41     1
   39    42     1
   42    43     1
   42    44     1
   42    45     1
   45    46     1
   45    47     1
   45    48     1
   48    49     1
   48    50     1
   48    51     1
   51    52     1
   51    53     1
   51    54     1
   54    55     1
   54    56     1
   54    57     1
   57    58     1
   57    59     1
   57    60     1
   60    61     1
   60    62     1
   60    63     1
   63    64     1
   63    65     1
   63    66     1
   66    67     1
   66    68     1
   66    69     1
   70    71     1
   70    72     1
   70    73     1
   73    74     1
   73    75     1
   73    76     1
   76    77     1
   76    78     1
   76    79     1
   79    80     1
   79    81     1
   79    82     1
   82    83     1
   82    84     1
   82    85     1
   85    86     1
   85    87     1
   85    88     1
   88    89     1
   88    90     1
   88    91     1
   91    92     1
   91    93     1
   91    94     1
   94    95     1
   94    96     1
   94    97     1
   97    98     1
   97    99     1
   97   100     1
  100   101     1
  100   102     1
  100   103     1
  103   104     1
  103   105     1
  103   106     1
  106   107     1
  106   108     1
  106   109     1
  109   110     1
  109   111     1
  109   112     1
  112   113     1
  112   114     1
  112   115     1
  115   116     1
  115   117     1
  115   118     1
  119   120     1
  119   121     1
  119   122     1
  122   123     1
  122   124     1
  122   125     1
  125   126     1
  125   127     1
  125   128     1
  128   129     1
  128   130     1
  128   131     1
  131   132     1
  131   133     1
  131   134     1
  134   135     1
  134   136     1
  134   137     1
  137   138     1
  137   139     1
  139   140     1
  139   141     1
  141   142     1
  141   143     1
  141   144     1
  144   145     1
  144   146     1
  146   147     1
  146   148     1
  148   149     1
  148   150     1
  148   151     1
  151   152     1
  151   153     1
  151   154     1
  154   155     1
  154   156     1
  154   157     1
  157   158     1
  157   159     1
  157   160     1
  160   161     1
  160   162     1
  160   163     1

[ pairs ]
; ai	aj	funct	c6	c12 or
; ai	aj	funct	fudgeQQ	q1	q2	c6	c12
    1     5     1
    1     7     1
    1    13     1
    1    19     1
    1    20     1
    1    21     1
    2     6     1
    2    11     1
    2    12     1
    2    18     1
    3     6     1
    3    11     1
    3    12     1
    3    18     1
    4     8     1
    4     9     1
    4    11     1
    4    12     1
    4    18     1
    4    27     1
    5     8     1
    5     9     1
    5    27     1
    6    10     1
    6    28     1
    6    29     1
    6    30     1
    7    31     1
    7    32     1
    7    33     1
    8    28     1
    8    29     1
    8    30     1
    9    28     1
    9    29     1
    9    30     1
   10    14     1
   10    15     1
   10    22     1
   11    13     1
   11    19     1
   11    20     1
   11    21     1
   12    16     1
   12    17     1
   12    19     1
   12    20     1
   12    21     1
   12    70     1
   13    18     1
   13    71     1
   13    72     1
   13    73     1
   14    16     1
   14    17     1
   14    70     1
   15    74     1
   15    75     1
   15    76     1
   16    71     1
   16    72     1
   16    73     1
   17    71     1
   17    72     1
   17    73     1
   18    23     1
   18    24     1
   19    22     1
   20    22     1
   21    25     1
   21    26     1
   21   119     1
   22   120     1
   22   121     1
   22   122     1
   23    25     1
   23    26     1
   23   119     1
   24   123     1
   24   124     1
   24   125     1
   25   120     1
   25   121     1
   25   122     1
   26   120     1
   26   121     1
   26   122     1
   27    34     1
   27    35     1
   27    36     1
   28    31     1
   28    32     1
   28    33     1
   29    31     1
   29    32     1
   29    33     1
   30    37     1
   30    38     1
   30    39     1
   31    34     1
   31    35     1
   31    36     1
   32    34     1
   32    35     1
   32    36     1
   33    40     1
   33    41     1
   33    42     1
   34    37     1
   34    38     1
   34    39     1
   35    37     1
   35    38     1
   35    39     1
   36    43     1
   36    44     1
   36    45     1
   37    40     1
   37    41     1
   37    42     1
   38    40     1
   38    41     1
   38    42     1
   39    46     1
   39    47     1
   39    48     1
   40    43     1
   40    44     1
   40    45     1
   41    43     1
   41    44     1
   41    45     1
   42    49     1
   42    50     1
   42    51     1
   43    46     1
   43    47     1
   43    48     1
   44    46     1
   44    47     1
   44    48     1
   45    52     1
   45    53     1
   45    54     1
   46    49     1
   46    50     1
   46    51     1
   47    49     1
   47    50     1
   47    51     1
   48    55     1
   48    56     1
   48    57     1
   49    52     1
   49    53     1
   49    54     1
   50    52     1
   50    53     1
   50    54     1
   51    58     1
   51    59     1
   51    60     1
   52    55     1
   52    56     1
   52    57     1
   53    55     1
   53    56     1
   53    57     1
   54    61     1
   54    62     1
   54    63     1
   55    58     1
   55    59     1
   55    60     1
   56    58     1
   56    59     1
   56    60     1
   57    64     1
   57    65     1
   57    66     1
   58    61     1
   58    62     1
   58    63     1
   59    61     1
   59    62     1
   59    63     1
   60    67     1
   60    68     1
   60    69     1
   61    64     1
   61    65     1
   61    66     1
   62    64     1
   62    65     1
   62    66     1
   64    67     1
   64    68     1
   64    69     1
   65    67     1
   65    68     1
   65    69     1
   70    77     1
   70    78     1
   70    79     1
   71    74     1
   71    75     1
   71    76     1
   72    74     1
   72    75     1
   72    76     1
   73    80     1
   73    81     1
   73    82     1
   74    77     1
   74    78     1
   74    79     1
   75    77     1
   75    78     1
   75    79     1
   76    83     1
   76    84     1
   76    85     1
   77    80     1
   77    81     1
   77    82     1
   78    80     1
   78    81     1
   78    82     1
   79    86     1
   79    87     1
   79    88     1
   80    83     1
   80    84     1
   80    85     1
   81    83     1
   81    84     1
   81    85     1
   82    89     1
   82    90     1
   82    91     1
   83    86     1
   83    87     1
   83    88     1
   84    86     1
   84    87     1
   84    88     1
   85    92     1
   85    93     1
   85    94     1
   86    89     1
   86    90     1
   86    91     1
   87    89     1
   87    90     1
   87    91     1
   88    95     1
   88    96     1
   88    97     1
   89    92     1
   89    93     1
   89    94     1
   90    92     1
   90    93     1
   90    94     1
   91    98     1
   91    99     1
   91   100     1
   92    95     1
   92    96     1
   92    97     1
   93    95     1
   93    96     1
   93    97     1
   94   101     1
   94   102     1
   94   103     1
   95    98     1
   95    99     1
   95   100     1
   96    98     1
   96    99     1
   96   100     1
   97   104     1
   97   105     1
   97   106     1
   98   101     1
   98   102     1
   98   103     1
   99   101     1
   99   102     1
   99   103     1
  100   107     1
  100   108     1
  100   109     1
  101   104     1
  101   105     1
  101   106     1
  102   104     1
  102   105     1
  102   106     1
  103   110     1
  103   111     1
  103   112     1
  104   107     1
  104   108     1
  104   109     1
  105   107     1
  105   108     1
  105   109     1
  106   113     1
  106   114     1
  106   115     1
  107   110     1
  107   111     1
  107   112     1
  108   110     1
  108   111     1
  108   112     1
  109   116     1
  109   117     1
  109   118     1
  110   113     1
  110   114     1
  110   115     1
  111   113     1
  111   114     1
  111   115     1
  113   116     1
  113   117     1
  113   118     1
  114   116     1
  114   117     1
  114   118     1
  119   126     1
  119   127     1
  119   128     1
  120   123     1
  120   124     1
  120   125     1
  121   123     1
  121   124     1
  121   125     1
  122   129     1
  122   130     1
  122   131     1
  123   126     1
  123   127     1
  123   128     1
  124   126     1
  124   127     1
  124   128     1
  125   132     1
  125   133     1
  125   134     1
  126   129     1
  126   130     1
  126   131     1
  127   129     1
  127   130     1
  127   131     1
  128   135     1
  128   136     1
  128   137     1
  129   132     1
  129   133     1
  129   134     1
  130   132     1
  130   133     1
  130   134     1
  131   138     1
  131   139     1
  132   135     1
  132   136     1
  132   137     1
  133   135     1
  133   136     1
  133   137     1
  134   140     1
  134   141     1
  135   138     1
  135   139     1
  136   138     1
  136   139     1
  137   142     1
  137   143     1
  137   144     1
  138   140     1
  138   141     1
  139   145     1
  139   146     1
  140   142     1
  140   143     1
  140   144     1
  141   147     1
  141   148     1
  142   145     1
  142   146     1
  143   145     1
  143   146     1
  144   149     1
  144   150     1
  144   151     1
  145   147     1
  145   148     1
  146   152     1
  146   153     1
  146   154     1
  147   149     1
  147   150     1
  147   151     1
  148   155     1
  148   156     1
  148   157     1
  149   152     1
  149   153     1
  149   154     1
  150   152     1
  150   153     1
  150   154     1
  151   158     1
  151   159     1
  151   160     1
  152   155     1
  152   156     1
  152   157     1
  153   155     1
  153   156     1
  153   157     1
  154   161     1
  154   162     1
  154   163     1
  155   158     1
  155   159     1
  155   160     1
  156   158     1
  156   159     1
  156   160     1
  158   161     1
  158   162     1
  158   163     1
  159   161     1
  159   162     1
  159   163     1

[ angles ] 
; ai	aj	ak	funct	th0	cth	S0	Kub
    2     1     3     5
    2     1     4     5
    2     1    10     5
    3     1     4     5
    3     1    10     5
    4     1    10     5
    1     4     6     5
    4     6     5     5
    4     6     7     5
    5     6     7     5
    6     7     8     5
    6     7     9     5
    6     7    27     5
    8     7     9     5
    8     7    27     5
    9     7    27     5
    1    10    11     5
    1    10    12     5
    1    10    18     5
   11    10    12     5
   11    10    18     5
   12    10    18     5
   10    12    13     5
   12    13    14     5
   12    13    15     5
   14    13    15     5
   13    15    16     5
   13    15    17     5
   13    15    70     5
   16    15    17     5
   16    15    70     5
   17    15    70     5
   10    18    19     5
   10    18    20     5
   10    18    21     5
   19    18    20     5
   19    18    21     5
   20    18    21     5
   18    21    22     5
   21    22    23     5
   21    22    24     5
   23    22    24     5
   22    24    25     5
   22    24    26     5
   22    24   119     5
   25    24    26     5
   25    24   119     5
   26    24   119     5
    7    27    28     5
    7    27    29     5
    7    27    30     5
   28    27    29     5
   28    27    30     5
   29    27    30     5
   27    30    31     5
   27    30    32     5
   27    30    33     5
   31    30    32     5
   31    30    33     5
   32    30    33     5
   30    33    34     5
   30    33    35     5
   30    33    36     5
   34    33    35     5
   34    33    36     5
   35    33    36     5
   33    36    37     5
   33    36    38     5
   33    36    39     5
   37    36    38     5
   37    36    39     5
   38    36    39     5
   36    39    40     5
   36    39    41     5
   36    39    42     5
   40    39    41     5
   40    39    42     5
   41    39    42     5
   39    42    43     5
   39    42    44     5
   39    42    45     5
   43    42    44     5
   43    42    45     5
   44    42    45     5
   42    45    46     5
   42    45    47     5
   42    45    48     5
   46    45    47     5
   46    45    48     5
   47    45    48     5
   45    48    49     5
   45    48    50     5
   45    48    51     5
   49    48    50     5
   49    48    51     5
   50    48    51     5
   48    51    52     5
   48    51    53     5
   48    51    54     5
   52    51    53     5
   52    51    54     5
   53    51    54     5
   51    54    55     5
   51    54    56     5
   51    54    57     5
   55    54    56     5
   55    54    57     5
   56    54    57     5
   54    57    58     5
   54    57    59     5
   54    57    60     5
   58    57    59     5
   58    57    60     5
   59    57    60     5
   57    60    61     5
   57    60    62     5
   57    60    63     5
   61    60    62     5
   61    60    63     5
   62    60    63     5
   60    63    64     5
   60    63    65     5
   60    63    66     5
   64    63    65     5
   64    63    66     5
   65    63    66     5
   63    66    67     5
   63    66    68     5
   63    66    69     5
   67    66    68     5
   67    66    69     5
   68    66    69     5
   15    70    71     5
   15    70    72     5
   15    70    73     5
   71    70    72     5
   71    70    73     5
   72    70    73     5
   70    73    74     5
   70    73    75     5
   70    73    76     5
   74    73    75     5
   74    73    76     5
   75    73    76     5
   73    76    77     5
   73    76    78     5
   73    76    79     5
   77    76    78     5
   77    76    79     5
   78    76    79     5
   76    79    80     5
   76    79    81     5
   76    79    82     5
   80    79    81     5
   80    79    82     5
   81    79    82     5
   79    82    83     5
   79    82    84     5
   79    82    85     5
   83    82    84     5
   83    82    85     5
   84    82    85     5
   82    85    86     5
   82    85    87     5
   82    85    88     5
   86    85    87     5
   86    85    88     5
   87    85    88     5
   85    88    89     5
   85    88    90     5
   85    88    91     5
   89    88    90     5
   89    88    91     5
   90    88    91     5
   88    91    92     5
   88    91    93     5
   88    91    94     5
   92    91    93     5
   92    91    94     5
   93    91    94     5
   91    94    95     5
   91    94    96     5
   91    94    97     5
   95    94    96     5
   95    94    97     5
   96    94    97     5
   94    97    98     5
   94    97    99     5
   94    97   100     5
   98    97    99     5
   98    97   100     5
   99    97   100     5
   97   100   101     5
   97   100   102     5
   97   100   103     5
  101   100   102     5
  101   100   103     5
  102   100   103     5
  100   103   104     5
  100   103   105     5
  100   103   106     5
  104   103   105     5
  104   103   106     5
  105   103   106     5
  103   106   107     5
  103   106   108     5
  103   106   109     5
  107   106   108     5
  107   106   109     5
  108   106   109     5
  106   109   110     5
  106   109   111     5
  106   109   112     5
  110   109   111     5
  110   109   112     5
  111   109   112     5
  109   112   113     5
  109   112   114     5
  109   112   115     5
  113   112   114     5
  113   112   115     5
  114   112   115     5
  112   115   116     5
  112   115   117     5
  112   115   118     5
  116   115   117     5
  116   115   118     5
  117   115   118     5
   24   119   120     5
   24   119   121     5
   24   119   122     5
  120   119   121     5
  120   119   122     5
  121   119   122     5
  119   122   123     5
  119   122   124     5
  119   122   125     5
  123   122   124     5
  123   122   125     5
  124   122   125     5
  122   125   126     5
  122   125   127     5
  122   125   128     5
  126   125   127     5
  126   125   128     5
  127   125   128     5
  125   128   129     5
  125   128   130     5
  125   128   131     5
  129   128   130     5
  129   128   131     5
  130   128   131     5
  128   131   132     5
  128   131   133     5
  128   131   134     5
  132   131   133     5
  132   131   134     5
  133   131   134     5
  131   134   135     5
  131   134   136     5
  131   134   137     5
  135   134   136     5
  135   134   137     5
  136   134   137     5
  134   137   138     5
  134   137   139     5
  138   137   139     5
  137   139   140     5
  137   139   141     5
  140   139   141     5
  139   141   142     5
  139   141   143     5
  139   141   144     5
  142   141   143     5
  142   141   144     5
  143   141   144     5
  141   144   145     5
  141   144   146     5
  145   144   146     5
  144   146   147     5
  144   146   148     5
  147   146   148     5
  146   148   149     5
  146   148   150     5
  146   148   151     5
  149   148   150     5
  149   148   151     5
  150   148   151     5
  148   151   152     5
  148   151   153     5
  148   151   154     5
  152   151   153     5
  152   151   154     5
  153   151   154     5
  151   154   155     5
  151   154   156     5
  151   154   157     5
  155   154   156     5
  155   154   157     5
  156   154   157     5
  154   157   158     5
  154   157   159     5
  154   157   160     5
  158   157   159     5
  158   157   160     5
  159   157   160     5
  157   160   161     5
  157   160   162     5
  157   160   163     5
  161   160   162     5
  161   160   163     5
  162   160   163     5

[ dihedrals ]
; ai	aj	ak	al	funct	phi0	cp	mult
    2     1     4     6     9
    3     1     4     6     9
    2     1    10    11     9
    2     1    10    12     9
    2     1    10    18     9
    3     1    10    11     9
    3     1    10    12     9
    3     1    10    18     9
    4     1    10    11     9
    4     1    10    12     9
    4     1    10    18     9
    6     4     1    10     9
    1     4     6     5     9
    1     4     6     7     9
    4     6     7     8     9
    4     6     7     9     9
    4     6     7    27     9
    5     6     7     8     9
    5     6     7     9     9
    5     6     7    27     9
    6     7    27    28     9
    6     7    27    29     9
    6     7    27    30     9
    8     7    27    28     9
    8     7    27    29     9
    8     7    27    30     9
    9     7    27    28     9
    9     7    27    29     9
    9     7    27    30     9
    1    10    12    13     9
   11    10    12    13     9
    1    10    18    19     9
    1    10    18    20     9
    1    10    18    21     9
   11    10    18    19     9
   11    10    18    20     9
   11    10    18    21     9
   12    10    18    19     9
   12    10    18    20     9
   12    10    18    21     9
   13    12    10    18     9
   10    12    13    14     9
   10    12    13    15     9
   12    13    15    16     9
   12    13    15    17     9
   12    13    15    70     9
   14    13    15    16     9
   14    13    15    17     9
   14    13    15    70     9
   13    15    70    71     9
   13    15    70    72     9
   13    15    70    73     9
   16    15    70    71     9
   16    15    70    72     9
   16    15    70    73     9
   17    15    70    71     9
   17    15    70    72     9
   17    15    70    73     9
   10    18    21    22     9
   19    18    21    22     9
   20    18    21    22     9
   18    21    22    23     9
   18    21    22    24     9
   21    22    24    25     9
   21    22    24    26     9
   21    22    24   119     9
   23    22    24    25     9
   23    22    24    26     9
   23    22    24   119     9
   22    24   119   120     9
   22    24   119   121     9
   22    24   119   122     9
   25    24   119   120     9
   25    24   119   121     9
   25    24   119   122     9
   26    24   119   120     9
   26    24   119   121     9
   26    24   119   122     9
    7    27    30    31     9
    7    27    30    32     9
    7    27    30    33     9
   28    27    30    31     9
   28    27    30    32     9
   28    27    30    33     9
   29    27    30    31     9
   29    27    30    32     9
   29    27    30    33     9
   27    30    33    34     9
   27    30    33    35     9
   27    30    33    36     9
   31    30    33    34     9
   31    30    33    35     9
   31    30    33    36     9
   32    30    33    34     9
   32    30    33    35     9
   32    30    33    36     9
   30    33    36    37     9
   30    33    36    38     9
   30    33    36    39     9
   34    33    36    37     9
   34    33    36    38     9
   34    33    36    39     9
   35    33    36    37     9
   35    33    36    38     9
   35    33    36    39     9
   33    36    39    40     9
   33    36    39    41     9
   33    36    39    42     9
   37    36    39    40     9
   37    36    39    41     9
   37    36    39    42     9
   38    36    39    40     9
   38    36    39    41     9
   38    36    39    42     9
   36    39    42    43     9
   36    39    42    44     9
   36    39    42    45     9
   40    39    42    43     9
   40    39    42    44     9
   40    39    42    45     9
   41    39    42    43     9
   41    39    42    44     9
   41    39    42    45     9
   39    42    45    46     9
   39    42    45    47     9
   39    42    45    48     9
   43    42    45    46     9
   43    42    45    47     9
   43    42    45    48     9
   44    42    45    46     9
   44    42    45    47     9
   44    42    45    48     9
   42    45    48    49     9
   42    45    48    50     9
   42    45    48    51     9
   46    45    48    49     9
   46    45    48    50     9
   46    45    48    51     9
   47    45    48    49     9
   47    45    48    50     9
   47    45    48    51     9
   45    48    51    52     9
   45    48    51    53     9
   45    48    51    54     9
   49    48    51    52     9
   49    48    51    53     9
   49    48    51    54     9
   50    48    51    52     9
   50    48    51    53     9
   50    48    51    54     9
   48    51    54    55     9
   48    51    54    56     9
   48    51    54    57     9
   52    51    54    55     9
   52    51    54    56     9
   52    51    54    57     9
   53    51    54    55     9
   53    51    54    56     9
   53    51    54    57     9
   51    54    57    58     9
   51    54    57    59     9
   51    54    57    60     9
   55    54    57    58     9
   55    54    57    59     9
   55    54    57    60     9
   56    54    57    58     9
   56    54    57    59     9
   56    54    57    60     9
   54    57    60    61     9
   54    57    60    62     9
   54    57    60    63     9
   58    57    60    61     9
   58    57    60    62     9
   58    57    60    63     9
   59    57    60    61     9
   59    57    60    62     9
   59    57    60    63     9
   57    60    63    64     9
   57    60    63    65     9
   57    60    63    66     9
   61    60    63    64     9
   61    60    63    65     9
   61    60    63    66     9
   62    60    63    64     9
   62    60    63    65     9
   62    60    63    66     9
   60    63    66    67     9
   60    63    66    68     9
   60    63    66    69     9
   64    63    66    67     9
   64    63    66    68     9
   64    63    66    69     9
   65    63    66    67     9
   65    63    66    68     9
   65    63    66    69     9
   15    70    73    74     9
   15    70    73    75     9
   15    70    73    76     9
   71    70    73    74     9
   71    70    73    75     9
   71    70    73    76     9
   72    70    73    74     9
   72    70    73    75     9
   72    70    73    76     9
   70    73    76    77     9
   70    73    76    78     9
   70    73    76    79     9
   74    73    76    77     9
   74    73    76    78     9
   74    73    76    79     9
   75    73    76    77     9
   75    73    76    78     9
   75    73    76    79     9
   73    76    79    80     9
   73    76    79    81     9
   73    76    79    82     9
   77    76    79    80     9
   77    76    79    81     9
   77    76    79    82     9
   78    76    79    80     9
   78    76    79    81     9
   78    76    79    82     9
   76    79    82    83     9
   76    79    82    84     9
   76    79    82    85     9
   80    79    82    83     9
   80    79    82    84     9
   80    79    82    85     9
   81    79    82    83     9
   81    79    82    84     9
   81    79    82    85     9
   79    82    85    86     9
   79    82    85    87     9
   79    82    85    88     9
   83    82    85    86     9
   83    82    85    87     9
   83    82    85    88     9
   84    82    85    86     9
   84    82    85    87     9
   84    82    85    88     9
   82    85    88    89     9
   82    85    88    90     9
   82    85    88    91     9
   86    85    88    89     9
   86    85    88    90     9
   86    85    88    91     9
   87    85    88    89     9
   87    85    88    90     9
   87    85    88    91     9
   85    88    91    92     9
   85    88    91    93     9
   85    88    91    94     9
   89    88    91    92     9
   89    88    91    93     9
   89    88    91    94     9
   90    88    91    92     9
   90    88    91    93     9
   90    88    91    94     9
   88    91    94    95     9
   88    91    94    96     9
   88    91    94    97     9
   92    91    94    95     9
   92    91    94    96     9
   92    91    94    97     9
   93    91    94    95     9
   93    91    94    96     9
   93    91    94    97     9
   91    94    97    98     9
   91    94    97    99     9
   91    94    97   100     9
   95    94    97    98     9
   95    94    97    99     9
   95    94    97   100     9
   96    94    97    98     9
   96    94    97    99     9
   96    94    97   100     9
   94    97   100   101     9
   94    97   100   102     9
   94    97   100   103     9
   98    97   100   101     9
   98    97   100   102     9
   98    97   100   103     9
   99    97   100   101     9
   99    97   100   102     9
   99    97   100   103     9
   97   100   103   104     9
   97   100   103   105     9
   97   100   103   106     9
  101   100   103   104     9
  101   100   103   105     9
  101   100   103   106     9
  102   100   103   104     9
  102   100   103   105     9
  102   100   103   106     9
  100   103   106   107     9
  100   103   106   108     9
  100   103   106   109     9
  104   103   106   107     9
  104   103   106   108     9
  104   103   106   109     9
  105   103   106   107     9
  105   103   106   108     9
  105   103   106   109     9
  103   106   109   110     9
  103   106   109   111     9
  103   106   109   112     9
  107   106   109   110     9
  107   106   109   111     9
  107   106   109   112     9
  108   106   109   110     9
  108   106   109   111     9
  108   106   109   112     9
  106   109   112   113     9
  106   109   112   114     9
  106   109   112   115     9
  110   109   112   113     9
  110   109   112   114     9
  110   109   112   115     9
  111   109   112   113     9
  111   109   112   114     9
  111   109   112   115     9
  109   112   115   116     9
  109   112   115   117     9
  109   112   115   118     9
  113   112   115   116     9
  113   112   115   117     9
  113   112   115   118     9
  114   112   115   116     9
  114   112   115   117     9
  114   112   115   118     9
   24   119   122   123     9
   24   119   122   124     9
   24   119   122   125     9
  120   119   122   123     9
  120   119   122   124     9
  120   119   122   125     9
  121   119   122   123     9
  121   119   122   124     9
  121   119   122   125     9
  119   122   125   126     9
  119   122   125   127     9
  119   122   125   128     9
  123   122   125   126     9
  123   122   125   127     9
  123   122   125   128     9
  124   122   125   126     9
  124   122   125   127     9
  124   122   125   128     9
  122   125   128   129     9
  122   125   128   130     9
  122   125   128   131     9
  126   125   128   129     9
  126   125   128   130     9
  126   125   128   131     9
  127   125   128   129     9
  127   125   128   130     9
  127   125   128   131     9
  125   128   131   132     9
  125   128   131   133     9
  125   128   131   134     9
  129   128   131   132     9
  129   128   131   133     9
  129   128   131   134     9
  130   128   131   132     9
  130   128   131   133     9
  130   128   131   134     9
  128   131   134   135     9
  128   131   134   136     9
  128   131   134   137     9
  132   131   134   135     9
  132   131   134   136     9
  132   131   134   137     9
  133   131   134   135     9
  133   131   134   136     9
  133   131   134   137     9
  131   134   137   138     9
  131   134   137   139     9
  135   134   137   138     9
  135   134   137   139     9
  136   134   137   138     9
  136   134   137   139     9
  134   137   139   140     9
  134   137   139   141     9
  138   137   139   140     9
  138   137   139   141     9
  137   139   141   142     9
  137   139   141   143     9
  137   139   141   144     9
  140   139   141   142     9
  140   139   141   143     9
  140   139   141   144     9
  139   141   144   145     9
  139   141   144   146     9
  142   141   144   145     9
  142   141   144   146     9
  143   141   144   145     9
  143   141   144   146     9
  141   144   146   147     9
  141   144   146   148     9
  145   144   146   147     9
  145   144   146   148     9
  144   146   148   149     9
  144   146   148   150     9
  144   146   148   151     9
  147   146   148   149     9
  147   146   148   150     9
  147   146   148   151     9
  146   148   151   152     9
  146   148   151   153     9
  146   148   151   154     9
  149   148   151   152     9
  149   148   151   153     9
  149   148   151   154     9
  150   148   151   152     9
  150   148   151   153     9
  150   148   151   154     9
  148   151   154   155     9
  148   151   154   156     9
  148   151   154   157     9
  152   151   154   155     9
  152   151   154   156     9
  152   151   154   157     9
  153   151   154   155     9
  153   151   154   156     9
  153   151   154   157     9
  151   154   157   158     9
  151   154   157   159     9
  151   154   157   160     9
  155   154   157   158     9
  155   154   157   159     9
  155   154   157   160     9
  156   154   157   158     9
  156   154   157   159     9
  156   154   157   160     9
  154   157   160   161     9
  154   157   160   162     9
  154   157   160   163     9
  158   157   160   161     9
  158   157   160   162     9
  158   157   160   163     9
  159   157   160   161     9
  159   157   160   162     9
  159   157   160   163     9

[ dihedrals ]
; ai	aj	ak	al	funct	q0	cq
    6     4     7     5     2
   13    12    15    14     2
   22    21    24    23     2

#ifdef POSRES
[ position_restraints ]
   10     1     0.0             0.0            POSRES_FC_LIPID
#endif

#ifdef DIHRES
[ dihedral_restraints ]
    1    18    10    12     1   -120.0      2.5       DIHRES_FC
  134   137   139   141     1      0.0      0.0       DIHRES_FC
  141   144   146   148     1      0.0      0.0       DIHRES_FC
#endif
