;;
;; Generated by CHARMM-GUI FF-Converter
;;
;; Correspondance:
;; jul316@lehigh.edu or wonpil@lehigh.edu
;;
;; GROMACS topology file for SLGL
;;


[ moleculetype ]
; name	nrexcl
SLGL	     3

[ atoms ]
; nr	type	resnr	residu	atom	cgnr	charge	mass
     1       CTL2     18     SLGL     C1      1     0.050000    12.0110   ; qtot  0.050
     2       HAL2     18     SLGL     HA      2     0.090000     1.0080   ; qtot  0.140
     3       HAL2     18     SLGL     HB      3     0.090000     1.0080   ; qtot  0.230
     4        OHL     18     SLGL    O11      4    -0.650000    15.9994   ; qtot -0.420
     5        HOL     18     SLGL    HO1      5     0.420000     1.0080   ; qtot -0.000
     6       CTL1     18     SLGL     C2      6     0.170000    12.0110   ; qtot  0.170
     7       HAL1     18     SLGL     HS      7     0.090000     1.0080   ; qtot  0.260
     8        OSL     18     SLGL    O21      8    -0.490000    15.9994   ; qtot -0.230
     9         CL     18     SLGL    C21      9     0.900000    12.0110   ; qtot  0.670
    10        OBL     18     SLGL    O22     10    -0.630000    15.9994   ; qtot  0.040
    11       CTL2     18     SLGL    C22     11    -0.220000    12.0110   ; qtot -0.180
    12       HAL2     18     SLGL    H2R     12     0.090000     1.0080   ; qtot -0.090
    13       HAL2     18     SLGL    H2S     13     0.090000     1.0080   ; qtot -0.000
    14       CTL2     18     SLGL     C3     14     0.080000    12.0110   ; qtot  0.080
    15       HAL2     18     SLGL     HX     15     0.090000     1.0080   ; qtot  0.170
    16       HAL2     18     SLGL     HY     16     0.090000     1.0080   ; qtot  0.260
    17        OSL     18     SLGL    O31     17    -0.490000    15.9994   ; qtot -0.230
    18         CL     18     SLGL    C31     18     0.900000    12.0110   ; qtot  0.670
    19        OBL     18     SLGL    O32     19    -0.630000    15.9994   ; qtot  0.040
    20       CTL2     18     SLGL    C32     20    -0.220000    12.0110   ; qtot -0.180
    21       HAL2     18     SLGL    H2X     21     0.090000     1.0080   ; qtot -0.090
    22       HAL2     18     SLGL    H2Y     22     0.090000     1.0080   ; qtot -0.000
    23       CTL2     18     SLGL    C23     23    -0.180000    12.0110   ; qtot -0.180
    24       HAL2     18     SLGL    H3R     24     0.090000     1.0080   ; qtot -0.090
    25       HAL2     18     SLGL    H3S     25     0.090000     1.0080   ; qtot -0.000
    26       CTL2     18     SLGL    C24     26    -0.180000    12.0110   ; qtot -0.180
    27       HAL2     18     SLGL    H4R     27     0.090000     1.0080   ; qtot -0.090
    28       HAL2     18     SLGL    H4S     28     0.090000     1.0080   ; qtot -0.000
    29       CTL2     18     SLGL    C25     29    -0.180000    12.0110   ; qtot -0.180
    30       HAL2     18     SLGL    H5R     30     0.090000     1.0080   ; qtot -0.090
    31       HAL2     18     SLGL    H5S     31     0.090000     1.0080   ; qtot -0.000
    32       CTL2     18     SLGL    C26     32    -0.180000    12.0110   ; qtot -0.180
    33       HAL2     18     SLGL    H6R     33     0.090000     1.0080   ; qtot -0.090
    34       HAL2     18     SLGL    H6S     34     0.090000     1.0080   ; qtot -0.000
    35       CTL2     18     SLGL    C27     35    -0.180000    12.0110   ; qtot -0.180
    36       HAL2     18     SLGL    H7R     36     0.090000     1.0080   ; qtot -0.090
    37       HAL2     18     SLGL    H7S     37     0.090000     1.0080   ; qtot -0.000
    38       CTL2     18     SLGL    C28     38    -0.180000    12.0110   ; qtot -0.180
    39       HAL2     18     SLGL    H8R     39     0.090000     1.0080   ; qtot -0.090
    40       HAL2     18     SLGL    H8S     40     0.090000     1.0080   ; qtot -0.000
    41       CEL1     18     SLGL    C29     41    -0.150000    12.0110   ; qtot -0.150
    42       HEL1     18     SLGL    H9R     42     0.150000     1.0080   ; qtot -0.000
    43       CEL1     18     SLGL   C210     43    -0.150000    12.0110   ; qtot -0.150
    44       HEL1     18     SLGL   H10R     44     0.150000     1.0080   ; qtot -0.000
    45       CTL2     18     SLGL   C211     45    -0.180000    12.0110   ; qtot -0.180
    46       HAL2     18     SLGL   H11R     46     0.090000     1.0080   ; qtot -0.090
    47       HAL2     18     SLGL   H11S     47     0.090000     1.0080   ; qtot -0.000
    48       CEL1     18     SLGL   C212     48    -0.150000    12.0110   ; qtot -0.150
    49       HEL1     18     SLGL   H12R     49     0.150000     1.0080   ; qtot -0.000
    50       CEL1     18     SLGL   C213     50    -0.150000    12.0110   ; qtot -0.150
    51       HEL1     18     SLGL   H13R     51     0.150000     1.0080   ; qtot -0.000
    52       CTL2     18     SLGL   C214     52    -0.180000    12.0110   ; qtot -0.180
    53       HAL2     18     SLGL   H14R     53     0.090000     1.0080   ; qtot -0.090
    54       HAL2     18     SLGL   H14S     54     0.090000     1.0080   ; qtot -0.000
    55       CTL2     18     SLGL   C215     55    -0.180000    12.0110   ; qtot -0.180
    56       HAL2     18     SLGL   H15R     56     0.090000     1.0080   ; qtot -0.090
    57       HAL2     18     SLGL   H15S     57     0.090000     1.0080   ; qtot -0.000
    58       CTL2     18     SLGL   C216     58    -0.180000    12.0110   ; qtot -0.180
    59       HAL2     18     SLGL   H16R     59     0.090000     1.0080   ; qtot -0.090
    60       HAL2     18     SLGL   H16S     60     0.090000     1.0080   ; qtot -0.000
    61       CTL2     18     SLGL   C217     61    -0.180000    12.0110   ; qtot -0.180
    62       HAL2     18     SLGL   H17R     62     0.090000     1.0080   ; qtot -0.090
    63       HAL2     18     SLGL   H17S     63     0.090000     1.0080   ; qtot -0.000
    64       CTL3     18     SLGL   C218     64    -0.270000    12.0110   ; qtot -0.270
    65       HAL3     18     SLGL   H18R     65     0.090000     1.0080   ; qtot -0.180
    66       HAL3     18     SLGL   H18S     66     0.090000     1.0080   ; qtot -0.090
    67       HAL3     18     SLGL   H18T     67     0.090000     1.0080   ; qtot -0.000
    68       CTL2     18     SLGL    C33     68    -0.180000    12.0110   ; qtot -0.180
    69       HAL2     18     SLGL    H3X     69     0.090000     1.0080   ; qtot -0.090
    70       HAL2     18     SLGL    H3Y     70     0.090000     1.0080   ; qtot -0.000
    71       CTL2     18     SLGL    C34     71    -0.180000    12.0110   ; qtot -0.180
    72       HAL2     18     SLGL    H4X     72     0.090000     1.0080   ; qtot -0.090
    73       HAL2     18     SLGL    H4Y     73     0.090000     1.0080   ; qtot -0.000
    74       CTL2     18     SLGL    C35     74    -0.180000    12.0110   ; qtot -0.180
    75       HAL2     18     SLGL    H5X     75     0.090000     1.0080   ; qtot -0.090
    76       HAL2     18     SLGL    H5Y     76     0.090000     1.0080   ; qtot -0.000
    77       CTL2     18     SLGL    C36     77    -0.180000    12.0110   ; qtot -0.180
    78       HAL2     18     SLGL    H6X     78     0.090000     1.0080   ; qtot -0.090
    79       HAL2     18     SLGL    H6Y     79     0.090000     1.0080   ; qtot -0.000
    80       CTL2     18     SLGL    C37     80    -0.180000    12.0110   ; qtot -0.180
    81       HAL2     18     SLGL    H7X     81     0.090000     1.0080   ; qtot -0.090
    82       HAL2     18     SLGL    H7Y     82     0.090000     1.0080   ; qtot -0.000
    83       CTL2     18     SLGL    C38     83    -0.180000    12.0110   ; qtot -0.180
    84       HAL2     18     SLGL    H8X     84     0.090000     1.0080   ; qtot -0.090
    85       HAL2     18     SLGL    H8Y     85     0.090000     1.0080   ; qtot -0.000
    86       CTL2     18     SLGL    C39     86    -0.180000    12.0110   ; qtot -0.180
    87       HAL2     18     SLGL    H9X     87     0.090000     1.0080   ; qtot -0.090
    88       HAL2     18     SLGL    H9Y     88     0.090000     1.0080   ; qtot -0.000
    89       CTL2     18     SLGL   C310     89    -0.180000    12.0110   ; qtot -0.180
    90       HAL2     18     SLGL   H10X     90     0.090000     1.0080   ; qtot -0.090
    91       HAL2     18     SLGL   H10Y     91     0.090000     1.0080   ; qtot -0.000
    92       CTL2     18     SLGL   C311     92    -0.180000    12.0110   ; qtot -0.180
    93       HAL2     18     SLGL   H11X     93     0.090000     1.0080   ; qtot -0.090
    94       HAL2     18     SLGL   H11Y     94     0.090000     1.0080   ; qtot -0.000
    95       CTL2     18     SLGL   C312     95    -0.180000    12.0110   ; qtot -0.180
    96       HAL2     18     SLGL   H12X     96     0.090000     1.0080   ; qtot -0.090
    97       HAL2     18     SLGL   H12Y     97     0.090000     1.0080   ; qtot -0.000
    98       CTL2     18     SLGL   C313     98    -0.180000    12.0110   ; qtot -0.180
    99       HAL2     18     SLGL   H13X     99     0.090000     1.0080   ; qtot -0.090
   100       HAL2     18     SLGL   H13Y    100     0.090000     1.0080   ; qtot -0.000
   101       CTL2     18     SLGL   C314    101    -0.180000    12.0110   ; qtot -0.180
   102       HAL2     18     SLGL   H14X    102     0.090000     1.0080   ; qtot -0.090
   103       HAL2     18     SLGL   H14Y    103     0.090000     1.0080   ; qtot -0.000
   104       CTL2     18     SLGL   C315    104    -0.180000    12.0110   ; qtot -0.180
   105       HAL2     18     SLGL   H15X    105     0.090000     1.0080   ; qtot -0.090
   106       HAL2     18     SLGL   H15Y    106     0.090000     1.0080   ; qtot -0.000
   107       CTL2     18     SLGL   C316    107    -0.180000    12.0110   ; qtot -0.180
   108       HAL2     18     SLGL   H16X    108     0.090000     1.0080   ; qtot -0.090
   109       HAL2     18     SLGL   H16Y    109     0.090000     1.0080   ; qtot -0.000
   110       CTL2     18     SLGL   C317    110    -0.180000    12.0110   ; qtot -0.180
   111       HAL2     18     SLGL   H17X    111     0.090000     1.0080   ; qtot -0.090
   112       HAL2     18     SLGL   H17Y    112     0.090000     1.0080   ; qtot -0.000
   113       CTL3     18     SLGL   C318    113    -0.270000    12.0110   ; qtot -0.270
   114       HAL3     18     SLGL   H18X    114     0.090000     1.0080   ; qtot -0.180
   115       HAL3     18     SLGL   H18Y    115     0.090000     1.0080   ; qtot -0.090
   116       HAL3     18     SLGL   H18Z    116     0.090000     1.0080   ; qtot -0.000

[ bonds ]
; ai	aj	funct	b0	Kb
    1     2     1
    1     3     1
    1     4     1
    1     6     1
    4     5     1
    6     7     1
    6     8     1
    6    14     1
    8     9     1
    9    10     1
    9    11     1
   11    12     1
   11    13     1
   11    23     1
   14    15     1
   14    16     1
   14    17     1
   17    18     1
   18    19     1
   18    20     1
   20    21     1
   20    22     1
   20    68     1
   23    24     1
   23    25     1
   23    26     1
   26    27     1
   26    28     1
   26    29     1
   29    30     1
   29    31     1
   29    32     1
   32    33     1
   32    34     1
   32    35     1
   35    36     1
   35    37     1
   35    38     1
   38    39     1
   38    40     1
   38    41     1
   41    42     1
   41    43     1
   43    44     1
   43    45     1
   45    46     1
   45    47     1
   45    48     1
   48    49     1
   48    50     1
   50    51     1
   50    52     1
   52    53     1
   52    54     1
   52    55     1
   55    56     1
   55    57     1
   55    58     1
   58    59     1
   58    60     1
   58    61     1
   61    62     1
   61    63     1
   61    64     1
   64    65     1
   64    66     1
   64    67     1
   68    69     1
   68    70     1
   68    71     1
   71    72     1
   71    73     1
   71    74     1
   74    75     1
   74    76     1
   74    77     1
   77    78     1
   77    79     1
   77    80     1
   80    81     1
   80    82     1
   80    83     1
   83    84     1
   83    85     1
   83    86     1
   86    87     1
   86    88     1
   86    89     1
   89    90     1
   89    91     1
   89    92     1
   92    93     1
   92    94     1
   92    95     1
   95    96     1
   95    97     1
   95    98     1
   98    99     1
   98   100     1
   98   101     1
  101   102     1
  101   103     1
  101   104     1
  104   105     1
  104   106     1
  104   107     1
  107   108     1
  107   109     1
  107   110     1
  110   111     1
  110   112     1
  110   113     1
  113   114     1
  113   115     1
  113   116     1

[ pairs ]
; ai	aj	funct	c6	c12 or
; ai	aj	funct	fudgeQQ	q1	q2	c6	c12
    1     9     1
    1    15     1
    1    16     1
    1    17     1
    2     5     1
    2     7     1
    2     8     1
    2    14     1
    3     5     1
    3     7     1
    3     8     1
    3    14     1
    4     7     1
    4     8     1
    4    14     1
    5     6     1
    6    10     1
    6    11     1
    6    18     1
    7     9     1
    7    15     1
    7    16     1
    7    17     1
    8    12     1
    8    13     1
    8    15     1
    8    16     1
    8    17     1
    8    23     1
    9    14     1
    9    24     1
    9    25     1
    9    26     1
   10    12     1
   10    13     1
   10    23     1
   11    27     1
   11    28     1
   11    29     1
   12    24     1
   12    25     1
   12    26     1
   13    24     1
   13    25     1
   13    26     1
   14    19     1
   14    20     1
   15    18     1
   16    18     1
   17    21     1
   17    22     1
   17    68     1
   18    69     1
   18    70     1
   18    71     1
   19    21     1
   19    22     1
   19    68     1
   20    72     1
   20    73     1
   20    74     1
   21    69     1
   21    70     1
   21    71     1
   22    69     1
   22    70     1
   22    71     1
   23    30     1
   23    31     1
   23    32     1
   24    27     1
   24    28     1
   24    29     1
   25    27     1
   25    28     1
   25    29     1
   26    33     1
   26    34     1
   26    35     1
   27    30     1
   27    31     1
   27    32     1
   28    30     1
   28    31     1
   28    32     1
   29    36     1
   29    37     1
   29    38     1
   30    33     1
   30    34     1
   30    35     1
   31    33     1
   31    34     1
   31    35     1
   32    39     1
   32    40     1
   32    41     1
   33    36     1
   33    37     1
   33    38     1
   34    36     1
   34    37     1
   34    38     1
   35    42     1
   35    43     1
   36    39     1
   36    40     1
   36    41     1
   37    39     1
   37    40     1
   37    41     1
   38    44     1
   38    45     1
   39    42     1
   39    43     1
   40    42     1
   40    43     1
   41    46     1
   41    47     1
   41    48     1
   42    44     1
   42    45     1
   43    49     1
   43    50     1
   44    46     1
   44    47     1
   44    48     1
   45    51     1
   45    52     1
   46    49     1
   46    50     1
   47    49     1
   47    50     1
   48    53     1
   48    54     1
   48    55     1
   49    51     1
   49    52     1
   50    56     1
   50    57     1
   50    58     1
   51    53     1
   51    54     1
   51    55     1
   52    59     1
   52    60     1
   52    61     1
   53    56     1
   53    57     1
   53    58     1
   54    56     1
   54    57     1
   54    58     1
   55    62     1
   55    63     1
   55    64     1
   56    59     1
   56    60     1
   56    61     1
   57    59     1
   57    60     1
   57    61     1
   58    65     1
   58    66     1
   58    67     1
   59    62     1
   59    63     1
   59    64     1
   60    62     1
   60    63     1
   60    64     1
   62    65     1
   62    66     1
   62    67     1
   63    65     1
   63    66     1
   63    67     1
   68    75     1
   68    76     1
   68    77     1
   69    72     1
   69    73     1
   69    74     1
   70    72     1
   70    73     1
   70    74     1
   71    78     1
   71    79     1
   71    80     1
   72    75     1
   72    76     1
   72    77     1
   73    75     1
   73    76     1
   73    77     1
   74    81     1
   74    82     1
   74    83     1
   75    78     1
   75    79     1
   75    80     1
   76    78     1
   76    79     1
   76    80     1
   77    84     1
   77    85     1
   77    86     1
   78    81     1
   78    82     1
   78    83     1
   79    81     1
   79    82     1
   79    83     1
   80    87     1
   80    88     1
   80    89     1
   81    84     1
   81    85     1
   81    86     1
   82    84     1
   82    85     1
   82    86     1
   83    90     1
   83    91     1
   83    92     1
   84    87     1
   84    88     1
   84    89     1
   85    87     1
   85    88     1
   85    89     1
   86    93     1
   86    94     1
   86    95     1
   87    90     1
   87    91     1
   87    92     1
   88    90     1
   88    91     1
   88    92     1
   89    96     1
   89    97     1
   89    98     1
   90    93     1
   90    94     1
   90    95     1
   91    93     1
   91    94     1
   91    95     1
   92    99     1
   92   100     1
   92   101     1
   93    96     1
   93    97     1
   93    98     1
   94    96     1
   94    97     1
   94    98     1
   95   102     1
   95   103     1
   95   104     1
   96    99     1
   96   100     1
   96   101     1
   97    99     1
   97   100     1
   97   101     1
   98   105     1
   98   106     1
   98   107     1
   99   102     1
   99   103     1
   99   104     1
  100   102     1
  100   103     1
  100   104     1
  101   108     1
  101   109     1
  101   110     1
  102   105     1
  102   106     1
  102   107     1
  103   105     1
  103   106     1
  103   107     1
  104   111     1
  104   112     1
  104   113     1
  105   108     1
  105   109     1
  105   110     1
  106   108     1
  106   109     1
  106   110     1
  107   114     1
  107   115     1
  107   116     1
  108   111     1
  108   112     1
  108   113     1
  109   111     1
  109   112     1
  109   113     1
  111   114     1
  111   115     1
  111   116     1
  112   114     1
  112   115     1
  112   116     1

[ angles ] 
; ai	aj	ak	funct	th0	cth	S0	Kub
    2     1     3     5
    2     1     4     5
    2     1     6     5
    3     1     4     5
    3     1     6     5
    4     1     6     5
    1     4     5     5
    1     6     7     5
    1     6     8     5
    1     6    14     5
    7     6     8     5
    7     6    14     5
    8     6    14     5
    6     8     9     5
    8     9    10     5
    8     9    11     5
   10     9    11     5
    9    11    12     5
    9    11    13     5
    9    11    23     5
   12    11    13     5
   12    11    23     5
   13    11    23     5
    6    14    15     5
    6    14    16     5
    6    14    17     5
   15    14    16     5
   15    14    17     5
   16    14    17     5
   14    17    18     5
   17    18    19     5
   17    18    20     5
   19    18    20     5
   18    20    21     5
   18    20    22     5
   18    20    68     5
   21    20    22     5
   21    20    68     5
   22    20    68     5
   11    23    24     5
   11    23    25     5
   11    23    26     5
   24    23    25     5
   24    23    26     5
   25    23    26     5
   23    26    27     5
   23    26    28     5
   23    26    29     5
   27    26    28     5
   27    26    29     5
   28    26    29     5
   26    29    30     5
   26    29    31     5
   26    29    32     5
   30    29    31     5
   30    29    32     5
   31    29    32     5
   29    32    33     5
   29    32    34     5
   29    32    35     5
   33    32    34     5
   33    32    35     5
   34    32    35     5
   32    35    36     5
   32    35    37     5
   32    35    38     5
   36    35    37     5
   36    35    38     5
   37    35    38     5
   35    38    39     5
   35    38    40     5
   35    38    41     5
   39    38    40     5
   39    38    41     5
   40    38    41     5
   38    41    42     5
   38    41    43     5
   42    41    43     5
   41    43    44     5
   41    43    45     5
   44    43    45     5
   43    45    46     5
   43    45    47     5
   43    45    48     5
   46    45    47     5
   46    45    48     5
   47    45    48     5
   45    48    49     5
   45    48    50     5
   49    48    50     5
   48    50    51     5
   48    50    52     5
   51    50    52     5
   50    52    53     5
   50    52    54     5
   50    52    55     5
   53    52    54     5
   53    52    55     5
   54    52    55     5
   52    55    56     5
   52    55    57     5
   52    55    58     5
   56    55    57     5
   56    55    58     5
   57    55    58     5
   55    58    59     5
   55    58    60     5
   55    58    61     5
   59    58    60     5
   59    58    61     5
   60    58    61     5
   58    61    62     5
   58    61    63     5
   58    61    64     5
   62    61    63     5
   62    61    64     5
   63    61    64     5
   61    64    65     5
   61    64    66     5
   61    64    67     5
   65    64    66     5
   65    64    67     5
   66    64    67     5
   20    68    69     5
   20    68    70     5
   20    68    71     5
   69    68    70     5
   69    68    71     5
   70    68    71     5
   68    71    72     5
   68    71    73     5
   68    71    74     5
   72    71    73     5
   72    71    74     5
   73    71    74     5
   71    74    75     5
   71    74    76     5
   71    74    77     5
   75    74    76     5
   75    74    77     5
   76    74    77     5
   74    77    78     5
   74    77    79     5
   74    77    80     5
   78    77    79     5
   78    77    80     5
   79    77    80     5
   77    80    81     5
   77    80    82     5
   77    80    83     5
   81    80    82     5
   81    80    83     5
   82    80    83     5
   80    83    84     5
   80    83    85     5
   80    83    86     5
   84    83    85     5
   84    83    86     5
   85    83    86     5
   83    86    87     5
   83    86    88     5
   83    86    89     5
   87    86    88     5
   87    86    89     5
   88    86    89     5
   86    89    90     5
   86    89    91     5
   86    89    92     5
   90    89    91     5
   90    89    92     5
   91    89    92     5
   89    92    93     5
   89    92    94     5
   89    92    95     5
   93    92    94     5
   93    92    95     5
   94    92    95     5
   92    95    96     5
   92    95    97     5
   92    95    98     5
   96    95    97     5
   96    95    98     5
   97    95    98     5
   95    98    99     5
   95    98   100     5
   95    98   101     5
   99    98   100     5
   99    98   101     5
  100    98   101     5
   98   101   102     5
   98   101   103     5
   98   101   104     5
  102   101   103     5
  102   101   104     5
  103   101   104     5
  101   104   105     5
  101   104   106     5
  101   104   107     5
  105   104   106     5
  105   104   107     5
  106   104   107     5
  104   107   108     5
  104   107   109     5
  104   107   110     5
  108   107   109     5
  108   107   110     5
  109   107   110     5
  107   110   111     5
  107   110   112     5
  107   110   113     5
  111   110   112     5
  111   110   113     5
  112   110   113     5
  110   113   114     5
  110   113   115     5
  110   113   116     5
  114   113   115     5
  114   113   116     5
  115   113   116     5

[ dihedrals ]
; ai	aj	ak	al	funct	phi0	cp	mult
    2     1     4     5     9
    3     1     4     5     9
    2     1     6     7     9
    2     1     6     8     9
    2     1     6    14     9
    3     1     6     7     9
    3     1     6     8     9
    3     1     6    14     9
    4     1     6     7     9
    4     1     6     8     9
    4     1     6    14     9
    5     4     1     6     9
    1     6     8     9     9
    7     6     8     9     9
    1     6    14    15     9
    1     6    14    16     9
    1     6    14    17     9
    7     6    14    15     9
    7     6    14    16     9
    7     6    14    17     9
    8     6    14    15     9
    8     6    14    16     9
    8     6    14    17     9
    9     8     6    14     9
    6     8     9    10     9
    6     8     9    11     9
    8     9    11    12     9
    8     9    11    13     9
    8     9    11    23     9
   10     9    11    12     9
   10     9    11    13     9
   10     9    11    23     9
    9    11    23    24     9
    9    11    23    25     9
    9    11    23    26     9
   12    11    23    24     9
   12    11    23    25     9
   12    11    23    26     9
   13    11    23    24     9
   13    11    23    25     9
   13    11    23    26     9
    6    14    17    18     9
   15    14    17    18     9
   16    14    17    18     9
   14    17    18    19     9
   14    17    18    20     9
   17    18    20    21     9
   17    18    20    22     9
   17    18    20    68     9
   19    18    20    21     9
   19    18    20    22     9
   19    18    20    68     9
   18    20    68    69     9
   18    20    68    70     9
   18    20    68    71     9
   21    20    68    69     9
   21    20    68    70     9
   21    20    68    71     9
   22    20    68    69     9
   22    20    68    70     9
   22    20    68    71     9
   11    23    26    27     9
   11    23    26    28     9
   11    23    26    29     9
   24    23    26    27     9
   24    23    26    28     9
   24    23    26    29     9
   25    23    26    27     9
   25    23    26    28     9
   25    23    26    29     9
   23    26    29    30     9
   23    26    29    31     9
   23    26    29    32     9
   27    26    29    30     9
   27    26    29    31     9
   27    26    29    32     9
   28    26    29    30     9
   28    26    29    31     9
   28    26    29    32     9
   26    29    32    33     9
   26    29    32    34     9
   26    29    32    35     9
   30    29    32    33     9
   30    29    32    34     9
   30    29    32    35     9
   31    29    32    33     9
   31    29    32    34     9
   31    29    32    35     9
   29    32    35    36     9
   29    32    35    37     9
   29    32    35    38     9
   33    32    35    36     9
   33    32    35    37     9
   33    32    35    38     9
   34    32    35    36     9
   34    32    35    37     9
   34    32    35    38     9
   32    35    38    39     9
   32    35    38    40     9
   32    35    38    41     9
   36    35    38    39     9
   36    35    38    40     9
   36    35    38    41     9
   37    35    38    39     9
   37    35    38    40     9
   37    35    38    41     9
   35    38    41    42     9
   35    38    41    43     9
   39    38    41    42     9
   39    38    41    43     9
   40    38    41    42     9
   40    38    41    43     9
   38    41    43    44     9
   38    41    43    45     9
   42    41    43    44     9
   42    41    43    45     9
   41    43    45    46     9
   41    43    45    47     9
   41    43    45    48     9
   44    43    45    46     9
   44    43    45    47     9
   44    43    45    48     9
   43    45    48    49     9
   43    45    48    50     9
   46    45    48    49     9
   46    45    48    50     9
   47    45    48    49     9
   47    45    48    50     9
   45    48    50    51     9
   45    48    50    52     9
   49    48    50    51     9
   49    48    50    52     9
   48    50    52    53     9
   48    50    52    54     9
   48    50    52    55     9
   51    50    52    53     9
   51    50    52    54     9
   51    50    52    55     9
   50    52    55    56     9
   50    52    55    57     9
   50    52    55    58     9
   53    52    55    56     9
   53    52    55    57     9
   53    52    55    58     9
   54    52    55    56     9
   54    52    55    57     9
   54    52    55    58     9
   52    55    58    59     9
   52    55    58    60     9
   52    55    58    61     9
   56    55    58    59     9
   56    55    58    60     9
   56    55    58    61     9
   57    55    58    59     9
   57    55    58    60     9
   57    55    58    61     9
   55    58    61    62     9
   55    58    61    63     9
   55    58    61    64     9
   59    58    61    62     9
   59    58    61    63     9
   59    58    61    64     9
   60    58    61    62     9
   60    58    61    63     9
   60    58    61    64     9
   58    61    64    65     9
   58    61    64    66     9
   58    61    64    67     9
   62    61    64    65     9
   62    61    64    66     9
   62    61    64    67     9
   63    61    64    65     9
   63    61    64    66     9
   63    61    64    67     9
   20    68    71    72     9
   20    68    71    73     9
   20    68    71    74     9
   69    68    71    72     9
   69    68    71    73     9
   69    68    71    74     9
   70    68    71    72     9
   70    68    71    73     9
   70    68    71    74     9
   68    71    74    75     9
   68    71    74    76     9
   68    71    74    77     9
   72    71    74    75     9
   72    71    74    76     9
   72    71    74    77     9
   73    71    74    75     9
   73    71    74    76     9
   73    71    74    77     9
   71    74    77    78     9
   71    74    77    79     9
   71    74    77    80     9
   75    74    77    78     9
   75    74    77    79     9
   75    74    77    80     9
   76    74    77    78     9
   76    74    77    79     9
   76    74    77    80     9
   74    77    80    81     9
   74    77    80    82     9
   74    77    80    83     9
   78    77    80    81     9
   78    77    80    82     9
   78    77    80    83     9
   79    77    80    81     9
   79    77    80    82     9
   79    77    80    83     9
   77    80    83    84     9
   77    80    83    85     9
   77    80    83    86     9
   81    80    83    84     9
   81    80    83    85     9
   81    80    83    86     9
   82    80    83    84     9
   82    80    83    85     9
   82    80    83    86     9
   80    83    86    87     9
   80    83    86    88     9
   80    83    86    89     9
   84    83    86    87     9
   84    83    86    88     9
   84    83    86    89     9
   85    83    86    87     9
   85    83    86    88     9
   85    83    86    89     9
   83    86    89    90     9
   83    86    89    91     9
   83    86    89    92     9
   87    86    89    90     9
   87    86    89    91     9
   87    86    89    92     9
   88    86    89    90     9
   88    86    89    91     9
   88    86    89    92     9
   86    89    92    93     9
   86    89    92    94     9
   86    89    92    95     9
   90    89    92    93     9
   90    89    92    94     9
   90    89    92    95     9
   91    89    92    93     9
   91    89    92    94     9
   91    89    92    95     9
   89    92    95    96     9
   89    92    95    97     9
   89    92    95    98     9
   93    92    95    96     9
   93    92    95    97     9
   93    92    95    98     9
   94    92    95    96     9
   94    92    95    97     9
   94    92    95    98     9
   92    95    98    99     9
   92    95    98   100     9
   92    95    98   101     9
   96    95    98    99     9
   96    95    98   100     9
   96    95    98   101     9
   97    95    98    99     9
   97    95    98   100     9
   97    95    98   101     9
   95    98   101   102     9
   95    98   101   103     9
   95    98   101   104     9
   99    98   101   102     9
   99    98   101   103     9
   99    98   101   104     9
  100    98   101   102     9
  100    98   101   103     9
  100    98   101   104     9
   98   101   104   105     9
   98   101   104   106     9
   98   101   104   107     9
  102   101   104   105     9
  102   101   104   106     9
  102   101   104   107     9
  103   101   104   105     9
  103   101   104   106     9
  103   101   104   107     9
  101   104   107   108     9
  101   104   107   109     9
  101   104   107   110     9
  105   104   107   108     9
  105   104   107   109     9
  105   104   107   110     9
  106   104   107   108     9
  106   104   107   109     9
  106   104   107   110     9
  104   107   110   111     9
  104   107   110   112     9
  104   107   110   113     9
  108   107   110   111     9
  108   107   110   112     9
  108   107   110   113     9
  109   107   110   111     9
  109   107   110   112     9
  109   107   110   113     9
  107   110   113   114     9
  107   110   113   115     9
  107   110   113   116     9
  111   110   113   114     9
  111   110   113   115     9
  111   110   113   116     9
  112   110   113   114     9
  112   110   113   115     9
  112   110   113   116     9

[ dihedrals ]
; ai	aj	ak	al	funct	q0	cq
    9     8    11    10     2
   18    17    20    19     2

#ifdef POSRES
[ position_restraints ]
    4     1     0.0             0.0            POSRES_FC_LIPID
#endif

#ifdef DIHRES
[ dihedral_restraints ]
    1    14     6     8     1   -120.0      2.5       DIHRES_FC
   38    41    43    45     1      0.0      0.0       DIHRES_FC
   45    48    50    52     1      0.0      0.0       DIHRES_FC
#endif
