;;
;; Generated by CHARMM-GUI FF-Converter
;;
;; Correspondance:
;; jul316@lehigh.edu or wonpil@lehigh.edu
;;
;; GROMACS topology file for DAGL
;;


[ moleculetype ]
; name	nrexcl
DAGL	     3

[ atoms ]
; nr	type	resnr	residu	atom	cgnr	charge	mass
     1       CTL2    160     DAGL     C1      1     0.050000    12.0110   ; qtot  0.050
     2       HAL2    160     DAGL     HA      2     0.090000     1.0080   ; qtot  0.140
     3       HAL2    160     DAGL     HB      3     0.090000     1.0080   ; qtot  0.230
     4        OHL    160     DAGL    O11      4    -0.650000    15.9994   ; qtot -0.420
     5        HOL    160     DAGL    HO1      5     0.420000     1.0080   ; qtot -0.000
     6       CTL1    160     DAGL     C2      6     0.170000    12.0110   ; qtot  0.170
     7       HAL1    160     DAGL     HS      7     0.090000     1.0080   ; qtot  0.260
     8        OSL    160     DAGL    O21      8    -0.490000    15.9994   ; qtot -0.230
     9         CL    160     DAGL    C21      9     0.900000    12.0110   ; qtot  0.670
    10        OBL    160     DAGL    O22     10    -0.630000    15.9994   ; qtot  0.040
    11       CTL2    160     DAGL    C22     11    -0.220000    12.0110   ; qtot -0.180
    12       HAL2    160     DAGL    H2R     12     0.090000     1.0080   ; qtot -0.090
    13       HAL2    160     DAGL    H2S     13     0.090000     1.0080   ; qtot -0.000
    14       CTL2    160     DAGL     C3     14     0.080000    12.0110   ; qtot  0.080
    15       HAL2    160     DAGL     HX     15     0.090000     1.0080   ; qtot  0.170
    16       HAL2    160     DAGL     HY     16     0.090000     1.0080   ; qtot  0.260
    17        OSL    160     DAGL    O31     17    -0.490000    15.9994   ; qtot -0.230
    18         CL    160     DAGL    C31     18     0.900000    12.0110   ; qtot  0.670
    19        OBL    160     DAGL    O32     19    -0.630000    15.9994   ; qtot  0.040
    20       CTL2    160     DAGL    C32     20    -0.220000    12.0110   ; qtot -0.180
    21       HAL2    160     DAGL    H2X     21     0.090000     1.0080   ; qtot -0.090
    22       HAL2    160     DAGL    H2Y     22     0.090000     1.0080   ; qtot -0.000
    23       CTL2    160     DAGL    C23     23    -0.180000    12.0110   ; qtot -0.180
    24       HAL2    160     DAGL    H3R     24     0.090000     1.0080   ; qtot -0.090
    25       HAL2    160     DAGL    H3S     25     0.090000     1.0080   ; qtot -0.000
    26       CTL2    160     DAGL    C24     26    -0.180000    12.0110   ; qtot -0.180
    27       HAL2    160     DAGL    H4R     27     0.090000     1.0080   ; qtot -0.090
    28       HAL2    160     DAGL    H4S     28     0.090000     1.0080   ; qtot -0.000
    29       CEL1    160     DAGL    C25     29    -0.150000    12.0110   ; qtot -0.150
    30       HEL1    160     DAGL    H5R     30     0.150000     1.0080   ; qtot -0.000
    31       CEL1    160     DAGL    C26     31    -0.150000    12.0110   ; qtot -0.150
    32       HEL1    160     DAGL    H6R     32     0.150000     1.0080   ; qtot -0.000
    33       CTL2    160     DAGL    C27     33    -0.180000    12.0110   ; qtot -0.180
    34       HAL2    160     DAGL    H7R     34     0.090000     1.0080   ; qtot -0.090
    35       HAL2    160     DAGL    H7S     35     0.090000     1.0080   ; qtot -0.000
    36       CEL1    160     DAGL    C28     36    -0.150000    12.0110   ; qtot -0.150
    37       HEL1    160     DAGL    H8R     37     0.150000     1.0080   ; qtot -0.000
    38       CEL1    160     DAGL    C29     38    -0.150000    12.0110   ; qtot -0.150
    39       HEL1    160     DAGL    H9R     39     0.150000     1.0080   ; qtot -0.000
    40       CTL2    160     DAGL   C210     40    -0.180000    12.0110   ; qtot -0.180
    41       HAL2    160     DAGL   H10R     41     0.090000     1.0080   ; qtot -0.090
    42       HAL2    160     DAGL   H10S     42     0.090000     1.0080   ; qtot -0.000
    43       CEL1    160     DAGL   C211     43    -0.150000    12.0110   ; qtot -0.150
    44       HEL1    160     DAGL   H11R     44     0.150000     1.0080   ; qtot -0.000
    45       CEL1    160     DAGL   C212     45    -0.150000    12.0110   ; qtot -0.150
    46       HEL1    160     DAGL   H12R     46     0.150000     1.0080   ; qtot -0.000
    47       CTL2    160     DAGL   C213     47    -0.180000    12.0110   ; qtot -0.180
    48       HAL2    160     DAGL   H13R     48     0.090000     1.0080   ; qtot -0.090
    49       HAL2    160     DAGL   H13S     49     0.090000     1.0080   ; qtot -0.000
    50       CEL1    160     DAGL   C214     50    -0.150000    12.0110   ; qtot -0.150
    51       HEL1    160     DAGL   H14R     51     0.150000     1.0080   ; qtot -0.000
    52       CEL1    160     DAGL   C215     52    -0.150000    12.0110   ; qtot -0.150
    53       HEL1    160     DAGL   H15R     53     0.150000     1.0080   ; qtot -0.000
    54       CTL2    160     DAGL   C216     54    -0.180000    12.0110   ; qtot -0.180
    55       HAL2    160     DAGL   H16R     55     0.090000     1.0080   ; qtot -0.090
    56       HAL2    160     DAGL   H16S     56     0.090000     1.0080   ; qtot -0.000
    57       CTL2    160     DAGL   C217     57    -0.180000    12.0110   ; qtot -0.180
    58       HAL2    160     DAGL   H17R     58     0.090000     1.0080   ; qtot -0.090
    59       HAL2    160     DAGL   H17S     59     0.090000     1.0080   ; qtot -0.000
    60       CTL2    160     DAGL   C218     60    -0.180000    12.0110   ; qtot -0.180
    61       HAL2    160     DAGL   H18R     61     0.090000     1.0080   ; qtot -0.090
    62       HAL2    160     DAGL   H18S     62     0.090000     1.0080   ; qtot -0.000
    63       CTL2    160     DAGL   C219     63    -0.180000    12.0110   ; qtot -0.180
    64       HAL2    160     DAGL   H19R     64     0.090000     1.0080   ; qtot -0.090
    65       HAL2    160     DAGL   H19S     65     0.090000     1.0080   ; qtot -0.000
    66       CTL3    160     DAGL   C220     66    -0.270000    12.0110   ; qtot -0.270
    67       HAL3    160     DAGL   H20R     67     0.090000     1.0080   ; qtot -0.180
    68       HAL3    160     DAGL   H20S     68     0.090000     1.0080   ; qtot -0.090
    69       HAL3    160     DAGL   H20T     69     0.090000     1.0080   ; qtot -0.000
    70       CTL2    160     DAGL    C33     70    -0.180000    12.0110   ; qtot -0.180
    71       HAL2    160     DAGL    H3X     71     0.090000     1.0080   ; qtot -0.090
    72       HAL2    160     DAGL    H3Y     72     0.090000     1.0080   ; qtot -0.000
    73       CTL2    160     DAGL    C34     73    -0.180000    12.0110   ; qtot -0.180
    74       HAL2    160     DAGL    H4X     74     0.090000     1.0080   ; qtot -0.090
    75       HAL2    160     DAGL    H4Y     75     0.090000     1.0080   ; qtot -0.000
    76       CEL1    160     DAGL    C35     76    -0.150000    12.0110   ; qtot -0.150
    77       HEL1    160     DAGL    H5X     77     0.150000     1.0080   ; qtot -0.000
    78       CEL1    160     DAGL    C36     78    -0.150000    12.0110   ; qtot -0.150
    79       HEL1    160     DAGL    H6X     79     0.150000     1.0080   ; qtot -0.000
    80       CTL2    160     DAGL    C37     80    -0.180000    12.0110   ; qtot -0.180
    81       HAL2    160     DAGL    H7X     81     0.090000     1.0080   ; qtot -0.090
    82       HAL2    160     DAGL    H7Y     82     0.090000     1.0080   ; qtot -0.000
    83       CEL1    160     DAGL    C38     83    -0.150000    12.0110   ; qtot -0.150
    84       HEL1    160     DAGL    H8X     84     0.150000     1.0080   ; qtot -0.000
    85       CEL1    160     DAGL    C39     85    -0.150000    12.0110   ; qtot -0.150
    86       HEL1    160     DAGL    H9X     86     0.150000     1.0080   ; qtot -0.000
    87       CTL2    160     DAGL   C310     87    -0.180000    12.0110   ; qtot -0.180
    88       HAL2    160     DAGL   H10X     88     0.090000     1.0080   ; qtot -0.090
    89       HAL2    160     DAGL   H10Y     89     0.090000     1.0080   ; qtot -0.000
    90       CEL1    160     DAGL   C311     90    -0.150000    12.0110   ; qtot -0.150
    91       HEL1    160     DAGL   H11X     91     0.150000     1.0080   ; qtot -0.000
    92       CEL1    160     DAGL   C312     92    -0.150000    12.0110   ; qtot -0.150
    93       HEL1    160     DAGL   H12X     93     0.150000     1.0080   ; qtot -0.000
    94       CTL2    160     DAGL   C313     94    -0.180000    12.0110   ; qtot -0.180
    95       HAL2    160     DAGL   H13X     95     0.090000     1.0080   ; qtot -0.090
    96       HAL2    160     DAGL   H13Y     96     0.090000     1.0080   ; qtot -0.000
    97       CEL1    160     DAGL   C314     97    -0.150000    12.0110   ; qtot -0.150
    98       HEL1    160     DAGL   H14X     98     0.150000     1.0080   ; qtot -0.000
    99       CEL1    160     DAGL   C315     99    -0.150000    12.0110   ; qtot -0.150
   100       HEL1    160     DAGL   H15X    100     0.150000     1.0080   ; qtot -0.000
   101       CTL2    160     DAGL   C316    101    -0.180000    12.0110   ; qtot -0.180
   102       HAL2    160     DAGL   H16X    102     0.090000     1.0080   ; qtot -0.090
   103       HAL2    160     DAGL   H16Y    103     0.090000     1.0080   ; qtot -0.000
   104       CTL2    160     DAGL   C317    104    -0.180000    12.0110   ; qtot -0.180
   105       HAL2    160     DAGL   H17X    105     0.090000     1.0080   ; qtot -0.090
   106       HAL2    160     DAGL   H17Y    106     0.090000     1.0080   ; qtot -0.000
   107       CTL2    160     DAGL   C318    107    -0.180000    12.0110   ; qtot -0.180
   108       HAL2    160     DAGL   H18X    108     0.090000     1.0080   ; qtot -0.090
   109       HAL2    160     DAGL   H18Y    109     0.090000     1.0080   ; qtot -0.000
   110       CTL2    160     DAGL   C319    110    -0.180000    12.0110   ; qtot -0.180
   111       HAL2    160     DAGL   H19X    111     0.090000     1.0080   ; qtot -0.090
   112       HAL2    160     DAGL   H19Y    112     0.090000     1.0080   ; qtot -0.000
   113       CTL3    160     DAGL   C320    113    -0.270000    12.0110   ; qtot -0.270
   114       HAL3    160     DAGL   H20X    114     0.090000     1.0080   ; qtot -0.180
   115       HAL3    160     DAGL   H20Y    115     0.090000     1.0080   ; qtot -0.090
   116       HAL3    160     DAGL   H20Z    116     0.090000     1.0080   ; qtot -0.000

[ bonds ]
; ai	aj	funct	b0	Kb
    1     2     1
    1     3     1
    1     4     1
    1     6     1
    4     5     1
    6     7     1
    6     8     1
    6    14     1
    9     8     1
    9    10     1
    9    11     1
   11    12     1
   11    13     1
   11    23     1
   14    15     1
   14    16     1
   14    17     1
   18    17     1
   18    19     1
   18    20     1
   20    21     1
   20    22     1
   20    70     1
   23    24     1
   23    25     1
   23    26     1
   26    27     1
   26    28     1
   26    29     1
   29    30     1
   29    31     1
   31    32     1
   31    33     1
   33    34     1
   33    35     1
   33    36     1
   36    37     1
   36    38     1
   38    39     1
   38    40     1
   40    41     1
   40    42     1
   40    43     1
   43    44     1
   43    45     1
   45    46     1
   45    47     1
   47    48     1
   47    49     1
   47    50     1
   50    51     1
   50    52     1
   52    53     1
   52    54     1
   54    55     1
   54    56     1
   54    57     1
   57    58     1
   57    59     1
   57    60     1
   60    61     1
   60    62     1
   60    63     1
   63    64     1
   63    65     1
   63    66     1
   66    67     1
   66    68     1
   66    69     1
   70    71     1
   70    72     1
   70    73     1
   73    74     1
   73    75     1
   73    76     1
   76    77     1
   76    78     1
   78    79     1
   78    80     1
   80    81     1
   80    82     1
   80    83     1
   83    84     1
   83    85     1
   85    86     1
   85    87     1
   87    88     1
   87    89     1
   87    90     1
   90    91     1
   90    92     1
   92    93     1
   92    94     1
   94    95     1
   94    96     1
   94    97     1
   97    98     1
   97    99     1
   99   100     1
   99   101     1
  101   102     1
  101   103     1
  101   104     1
  104   105     1
  104   106     1
  104   107     1
  107   108     1
  107   109     1
  107   110     1
  110   111     1
  110   112     1
  110   113     1
  113   114     1
  113   115     1
  113   116     1

[ pairs ]
; ai	aj	funct	c6	c12 or
; ai	aj	funct	fudgeQQ	q1	q2	c6	c12
    1     9     1
    1    15     1
    1    16     1
    1    17     1
    2     5     1
    2     7     1
    2     8     1
    2    14     1
    3     5     1
    3     7     1
    3     8     1
    3    14     1
    4     7     1
    4     8     1
    4    14     1
    5     6     1
    6    10     1
    6    11     1
    6    18     1
    7     9     1
    7    15     1
    7    16     1
    7    17     1
    8    12     1
    8    13     1
    8    15     1
    8    16     1
    8    17     1
    8    23     1
    9    14     1
    9    24     1
    9    25     1
    9    26     1
   10    12     1
   10    13     1
   10    23     1
   11    27     1
   11    28     1
   11    29     1
   12    24     1
   12    25     1
   12    26     1
   13    24     1
   13    25     1
   13    26     1
   14    19     1
   14    20     1
   15    18     1
   16    18     1
   17    21     1
   17    22     1
   17    70     1
   18    71     1
   18    72     1
   18    73     1
   19    21     1
   19    22     1
   19    70     1
   20    74     1
   20    75     1
   20    76     1
   21    71     1
   21    72     1
   21    73     1
   22    71     1
   22    72     1
   22    73     1
   23    30     1
   23    31     1
   24    27     1
   24    28     1
   24    29     1
   25    27     1
   25    28     1
   25    29     1
   26    32     1
   26    33     1
   27    30     1
   27    31     1
   28    30     1
   28    31     1
   29    34     1
   29    35     1
   29    36     1
   30    32     1
   30    33     1
   31    37     1
   31    38     1
   32    34     1
   32    35     1
   32    36     1
   33    39     1
   33    40     1
   34    37     1
   34    38     1
   35    37     1
   35    38     1
   36    41     1
   36    42     1
   36    43     1
   37    39     1
   37    40     1
   38    44     1
   38    45     1
   39    41     1
   39    42     1
   39    43     1
   40    46     1
   40    47     1
   41    44     1
   41    45     1
   42    44     1
   42    45     1
   43    48     1
   43    49     1
   43    50     1
   44    46     1
   44    47     1
   45    51     1
   45    52     1
   46    48     1
   46    49     1
   46    50     1
   47    53     1
   47    54     1
   48    51     1
   48    52     1
   49    51     1
   49    52     1
   50    55     1
   50    56     1
   50    57     1
   51    53     1
   51    54     1
   52    58     1
   52    59     1
   52    60     1
   53    55     1
   53    56     1
   53    57     1
   54    61     1
   54    62     1
   54    63     1
   55    58     1
   55    59     1
   55    60     1
   56    58     1
   56    59     1
   56    60     1
   57    64     1
   57    65     1
   57    66     1
   58    61     1
   58    62     1
   58    63     1
   59    61     1
   59    62     1
   59    63     1
   60    67     1
   60    68     1
   60    69     1
   61    64     1
   61    65     1
   61    66     1
   62    64     1
   62    65     1
   62    66     1
   64    67     1
   64    68     1
   64    69     1
   65    67     1
   65    68     1
   65    69     1
   70    77     1
   70    78     1
   71    74     1
   71    75     1
   71    76     1
   72    74     1
   72    75     1
   72    76     1
   73    79     1
   73    80     1
   74    77     1
   74    78     1
   75    77     1
   75    78     1
   76    81     1
   76    82     1
   76    83     1
   77    79     1
   77    80     1
   78    84     1
   78    85     1
   79    81     1
   79    82     1
   79    83     1
   80    86     1
   80    87     1
   81    84     1
   81    85     1
   82    84     1
   82    85     1
   83    88     1
   83    89     1
   83    90     1
   84    86     1
   84    87     1
   85    91     1
   85    92     1
   86    88     1
   86    89     1
   86    90     1
   87    93     1
   87    94     1
   88    91     1
   88    92     1
   89    91     1
   89    92     1
   90    95     1
   90    96     1
   90    97     1
   91    93     1
   91    94     1
   92    98     1
   92    99     1
   93    95     1
   93    96     1
   93    97     1
   94   100     1
   94   101     1
   95    98     1
   95    99     1
   96    98     1
   96    99     1
   97   102     1
   97   103     1
   97   104     1
   98   100     1
   98   101     1
   99   105     1
   99   106     1
   99   107     1
  100   102     1
  100   103     1
  100   104     1
  101   108     1
  101   109     1
  101   110     1
  102   105     1
  102   106     1
  102   107     1
  103   105     1
  103   106     1
  103   107     1
  104   111     1
  104   112     1
  104   113     1
  105   108     1
  105   109     1
  105   110     1
  106   108     1
  106   109     1
  106   110     1
  107   114     1
  107   115     1
  107   116     1
  108   111     1
  108   112     1
  108   113     1
  109   111     1
  109   112     1
  109   113     1
  111   114     1
  111   115     1
  111   116     1
  112   114     1
  112   115     1
  112   116     1

[ angles ] 
; ai	aj	ak	funct	th0	cth	S0	Kub
    2     1     3     5
    2     1     4     5
    2     1     6     5
    3     1     4     5
    3     1     6     5
    4     1     6     5
    1     4     5     5
    1     6     7     5
    1     6     8     5
    1     6    14     5
    7     6     8     5
    7     6    14     5
    8     6    14     5
    6     8     9     5
    8     9    10     5
    8     9    11     5
   10     9    11     5
    9    11    12     5
    9    11    13     5
    9    11    23     5
   12    11    13     5
   12    11    23     5
   13    11    23     5
    6    14    15     5
    6    14    16     5
    6    14    17     5
   15    14    16     5
   15    14    17     5
   16    14    17     5
   14    17    18     5
   17    18    19     5
   17    18    20     5
   19    18    20     5
   18    20    21     5
   18    20    22     5
   18    20    70     5
   21    20    22     5
   21    20    70     5
   22    20    70     5
   11    23    24     5
   11    23    25     5
   11    23    26     5
   24    23    25     5
   24    23    26     5
   25    23    26     5
   23    26    27     5
   23    26    28     5
   23    26    29     5
   27    26    28     5
   27    26    29     5
   28    26    29     5
   26    29    30     5
   26    29    31     5
   30    29    31     5
   29    31    32     5
   29    31    33     5
   32    31    33     5
   31    33    34     5
   31    33    35     5
   31    33    36     5
   34    33    35     5
   34    33    36     5
   35    33    36     5
   33    36    37     5
   33    36    38     5
   37    36    38     5
   36    38    39     5
   36    38    40     5
   39    38    40     5
   38    40    41     5
   38    40    42     5
   38    40    43     5
   41    40    42     5
   41    40    43     5
   42    40    43     5
   40    43    44     5
   40    43    45     5
   44    43    45     5
   43    45    46     5
   43    45    47     5
   46    45    47     5
   45    47    48     5
   45    47    49     5
   45    47    50     5
   48    47    49     5
   48    47    50     5
   49    47    50     5
   47    50    51     5
   47    50    52     5
   51    50    52     5
   50    52    53     5
   50    52    54     5
   53    52    54     5
   52    54    55     5
   52    54    56     5
   52    54    57     5
   55    54    56     5
   55    54    57     5
   56    54    57     5
   54    57    58     5
   54    57    59     5
   54    57    60     5
   58    57    59     5
   58    57    60     5
   59    57    60     5
   57    60    61     5
   57    60    62     5
   57    60    63     5
   61    60    62     5
   61    60    63     5
   62    60    63     5
   60    63    64     5
   60    63    65     5
   60    63    66     5
   64    63    65     5
   64    63    66     5
   65    63    66     5
   63    66    67     5
   63    66    68     5
   63    66    69     5
   67    66    68     5
   67    66    69     5
   68    66    69     5
   20    70    71     5
   20    70    72     5
   20    70    73     5
   71    70    72     5
   71    70    73     5
   72    70    73     5
   70    73    74     5
   70    73    75     5
   70    73    76     5
   74    73    75     5
   74    73    76     5
   75    73    76     5
   73    76    77     5
   73    76    78     5
   77    76    78     5
   76    78    79     5
   76    78    80     5
   79    78    80     5
   78    80    81     5
   78    80    82     5
   78    80    83     5
   81    80    82     5
   81    80    83     5
   82    80    83     5
   80    83    84     5
   80    83    85     5
   84    83    85     5
   83    85    86     5
   83    85    87     5
   86    85    87     5
   85    87    88     5
   85    87    89     5
   85    87    90     5
   88    87    89     5
   88    87    90     5
   89    87    90     5
   87    90    91     5
   87    90    92     5
   91    90    92     5
   90    92    93     5
   90    92    94     5
   93    92    94     5
   92    94    95     5
   92    94    96     5
   92    94    97     5
   95    94    96     5
   95    94    97     5
   96    94    97     5
   94    97    98     5
   94    97    99     5
   98    97    99     5
   97    99   100     5
   97    99   101     5
  100    99   101     5
   99   101   102     5
   99   101   103     5
   99   101   104     5
  102   101   103     5
  102   101   104     5
  103   101   104     5
  101   104   105     5
  101   104   106     5
  101   104   107     5
  105   104   106     5
  105   104   107     5
  106   104   107     5
  104   107   108     5
  104   107   109     5
  104   107   110     5
  108   107   109     5
  108   107   110     5
  109   107   110     5
  107   110   111     5
  107   110   112     5
  107   110   113     5
  111   110   112     5
  111   110   113     5
  112   110   113     5
  110   113   114     5
  110   113   115     5
  110   113   116     5
  114   113   115     5
  114   113   116     5
  115   113   116     5

[ dihedrals ]
; ai	aj	ak	al	funct	phi0	cp	mult
    2     1     4     5     9
    3     1     4     5     9
    2     1     6     7     9
    2     1     6     8     9
    2     1     6    14     9
    3     1     6     7     9
    3     1     6     8     9
    3     1     6    14     9
    4     1     6     7     9
    4     1     6     8     9
    4     1     6    14     9
    5     4     1     6     9
    1     6     8     9     9
    7     6     8     9     9
    1     6    14    15     9
    1     6    14    16     9
    1     6    14    17     9
    7     6    14    15     9
    7     6    14    16     9
    7     6    14    17     9
    8     6    14    15     9
    8     6    14    16     9
    8     6    14    17     9
    9     8     6    14     9
    6     8     9    10     9
    6     8     9    11     9
    8     9    11    12     9
    8     9    11    13     9
    8     9    11    23     9
   10     9    11    12     9
   10     9    11    13     9
   10     9    11    23     9
    9    11    23    24     9
    9    11    23    25     9
    9    11    23    26     9
   12    11    23    24     9
   12    11    23    25     9
   12    11    23    26     9
   13    11    23    24     9
   13    11    23    25     9
   13    11    23    26     9
    6    14    17    18     9
   15    14    17    18     9
   16    14    17    18     9
   14    17    18    19     9
   14    17    18    20     9
   17    18    20    21     9
   17    18    20    22     9
   17    18    20    70     9
   19    18    20    21     9
   19    18    20    22     9
   19    18    20    70     9
   18    20    70    71     9
   18    20    70    72     9
   18    20    70    73     9
   21    20    70    71     9
   21    20    70    72     9
   21    20    70    73     9
   22    20    70    71     9
   22    20    70    72     9
   22    20    70    73     9
   11    23    26    27     9
   11    23    26    28     9
   11    23    26    29     9
   24    23    26    27     9
   24    23    26    28     9
   24    23    26    29     9
   25    23    26    27     9
   25    23    26    28     9
   25    23    26    29     9
   23    26    29    30     9
   23    26    29    31     9
   27    26    29    30     9
   27    26    29    31     9
   28    26    29    30     9
   28    26    29    31     9
   26    29    31    32     9
   26    29    31    33     9
   30    29    31    32     9
   30    29    31    33     9
   29    31    33    34     9
   29    31    33    35     9
   29    31    33    36     9
   32    31    33    34     9
   32    31    33    35     9
   32    31    33    36     9
   31    33    36    37     9
   31    33    36    38     9
   34    33    36    37     9
   34    33    36    38     9
   35    33    36    37     9
   35    33    36    38     9
   33    36    38    39     9
   33    36    38    40     9
   37    36    38    39     9
   37    36    38    40     9
   36    38    40    41     9
   36    38    40    42     9
   36    38    40    43     9
   39    38    40    41     9
   39    38    40    42     9
   39    38    40    43     9
   38    40    43    44     9
   38    40    43    45     9
   41    40    43    44     9
   41    40    43    45     9
   42    40    43    44     9
   42    40    43    45     9
   40    43    45    46     9
   40    43    45    47     9
   44    43    45    46     9
   44    43    45    47     9
   43    45    47    48     9
   43    45    47    49     9
   43    45    47    50     9
   46    45    47    48     9
   46    45    47    49     9
   46    45    47    50     9
   45    47    50    51     9
   45    47    50    52     9
   48    47    50    51     9
   48    47    50    52     9
   49    47    50    51     9
   49    47    50    52     9
   47    50    52    53     9
   47    50    52    54     9
   51    50    52    53     9
   51    50    52    54     9
   50    52    54    55     9
   50    52    54    56     9
   50    52    54    57     9
   53    52    54    55     9
   53    52    54    56     9
   53    52    54    57     9
   52    54    57    58     9
   52    54    57    59     9
   52    54    57    60     9
   55    54    57    58     9
   55    54    57    59     9
   55    54    57    60     9
   56    54    57    58     9
   56    54    57    59     9
   56    54    57    60     9
   54    57    60    61     9
   54    57    60    62     9
   54    57    60    63     9
   58    57    60    61     9
   58    57    60    62     9
   58    57    60    63     9
   59    57    60    61     9
   59    57    60    62     9
   59    57    60    63     9
   57    60    63    64     9
   57    60    63    65     9
   57    60    63    66     9
   61    60    63    64     9
   61    60    63    65     9
   61    60    63    66     9
   62    60    63    64     9
   62    60    63    65     9
   62    60    63    66     9
   60    63    66    67     9
   60    63    66    68     9
   60    63    66    69     9
   64    63    66    67     9
   64    63    66    68     9
   64    63    66    69     9
   65    63    66    67     9
   65    63    66    68     9
   65    63    66    69     9
   20    70    73    74     9
   20    70    73    75     9
   20    70    73    76     9
   71    70    73    74     9
   71    70    73    75     9
   71    70    73    76     9
   72    70    73    74     9
   72    70    73    75     9
   72    70    73    76     9
   70    73    76    77     9
   70    73    76    78     9
   74    73    76    77     9
   74    73    76    78     9
   75    73    76    77     9
   75    73    76    78     9
   73    76    78    79     9
   73    76    78    80     9
   77    76    78    79     9
   77    76    78    80     9
   76    78    80    81     9
   76    78    80    82     9
   76    78    80    83     9
   79    78    80    81     9
   79    78    80    82     9
   79    78    80    83     9
   78    80    83    84     9
   78    80    83    85     9
   81    80    83    84     9
   81    80    83    85     9
   82    80    83    84     9
   82    80    83    85     9
   80    83    85    86     9
   80    83    85    87     9
   84    83    85    86     9
   84    83    85    87     9
   83    85    87    88     9
   83    85    87    89     9
   83    85    87    90     9
   86    85    87    88     9
   86    85    87    89     9
   86    85    87    90     9
   85    87    90    91     9
   85    87    90    92     9
   88    87    90    91     9
   88    87    90    92     9
   89    87    90    91     9
   89    87    90    92     9
   87    90    92    93     9
   87    90    92    94     9
   91    90    92    93     9
   91    90    92    94     9
   90    92    94    95     9
   90    92    94    96     9
   90    92    94    97     9
   93    92    94    95     9
   93    92    94    96     9
   93    92    94    97     9
   92    94    97    98     9
   92    94    97    99     9
   95    94    97    98     9
   95    94    97    99     9
   96    94    97    98     9
   96    94    97    99     9
   94    97    99   100     9
   94    97    99   101     9
   98    97    99   100     9
   98    97    99   101     9
   97    99   101   102     9
   97    99   101   103     9
   97    99   101   104     9
  100    99   101   102     9
  100    99   101   103     9
  100    99   101   104     9
   99   101   104   105     9
   99   101   104   106     9
   99   101   104   107     9
  102   101   104   105     9
  102   101   104   106     9
  102   101   104   107     9
  103   101   104   105     9
  103   101   104   106     9
  103   101   104   107     9
  101   104   107   108     9
  101   104   107   109     9
  101   104   107   110     9
  105   104   107   108     9
  105   104   107   109     9
  105   104   107   110     9
  106   104   107   108     9
  106   104   107   109     9
  106   104   107   110     9
  104   107   110   111     9
  104   107   110   112     9
  104   107   110   113     9
  108   107   110   111     9
  108   107   110   112     9
  108   107   110   113     9
  109   107   110   111     9
  109   107   110   112     9
  109   107   110   113     9
  107   110   113   114     9
  107   110   113   115     9
  107   110   113   116     9
  111   110   113   114     9
  111   110   113   115     9
  111   110   113   116     9
  112   110   113   114     9
  112   110   113   115     9
  112   110   113   116     9

[ dihedrals ]
; ai	aj	ak	al	funct	q0	cq
    9     8    11    10     2
   18    17    20    19     2

#ifdef POSRES
[ position_restraints ]
    4     1     0.0             0.0            POSRES_FC_LIPID
#endif

#ifdef DIHRES
[ dihedral_restraints ]
    1    14     6     8     1   -120.0      2.5       DIHRES_FC
   26    29    31    33     1      0.0      0.0       DIHRES_FC
   33    36    38    40     1      0.0      0.0       DIHRES_FC
   40    43    45    47     1      0.0      0.0       DIHRES_FC
   47    50    52    54     1      0.0      0.0       DIHRES_FC
   73    76    78    80     1      0.0      0.0       DIHRES_FC
   80    83    85    87     1      0.0      0.0       DIHRES_FC
   87    90    92    94     1      0.0      0.0       DIHRES_FC
   94    97    99   101     1      0.0      0.0       DIHRES_FC
#endif
