;;
;; Generated by CHARMM-GUI FF-Converter
;;
;; Correspondance:
;; jul316@lehigh.edu or wonpil@lehigh.edu
;;
;; GROMACS topology file for DCPC
;;


[ moleculetype ]
; name	nrexcl
DCPC	     3

[ atoms ]
; nr	type	resnr	residu	atom	cgnr	charge	mass
     1        NTL    109     DCPC      N      1    -0.600000    14.0070   ; qtot -0.600
     2       CTL5    109     DCPC    C13      2    -0.350000    12.0110   ; qtot -0.950
     3         HL    109     DCPC   H13A      3     0.250000     1.0080   ; qtot -0.700
     4         HL    109     DCPC   H13B      4     0.250000     1.0080   ; qtot -0.450
     5         HL    109     DCPC   H13C      5     0.250000     1.0080   ; qtot -0.200
     6       CTL5    109     DCPC    C14      6    -0.350000    12.0110   ; qtot -0.550
     7         HL    109     DCPC   H14A      7     0.250000     1.0080   ; qtot -0.300
     8         HL    109     DCPC   H14B      8     0.250000     1.0080   ; qtot -0.050
     9         HL    109     DCPC   H14C      9     0.250000     1.0080   ; qtot  0.200
    10       CTL5    109     DCPC    C15     10    -0.350000    12.0110   ; qtot -0.150
    11         HL    109     DCPC   H15A     11     0.250000     1.0080   ; qtot  0.100
    12         HL    109     DCPC   H15B     12     0.250000     1.0080   ; qtot  0.350
    13         HL    109     DCPC   H15C     13     0.250000     1.0080   ; qtot  0.600
    14       CTL2    109     DCPC    C12     14    -0.100000    12.0110   ; qtot  0.500
    15         HL    109     DCPC   H12A     15     0.250000     1.0080   ; qtot  0.750
    16         HL    109     DCPC   H12B     16     0.250000     1.0080   ; qtot  1.000
    17       CTL2    109     DCPC    C11     17    -0.080000    12.0110   ; qtot  0.920
    18       HAL2    109     DCPC   H11A     18     0.090000     1.0080   ; qtot  1.010
    19       HAL2    109     DCPC   H11B     19     0.090000     1.0080   ; qtot  1.100
    20         PL    109     DCPC      P     20     1.500000    30.9740   ; qtot  2.600
    21        O2L    109     DCPC    O13     21    -0.780000    15.9994   ; qtot  1.820
    22        O2L    109     DCPC    O14     22    -0.780000    15.9994   ; qtot  1.040
    23       OSLP    109     DCPC    O11     23    -0.570000    15.9994   ; qtot  0.470
    24       OSLP    109     DCPC    O12     24    -0.570000    15.9994   ; qtot -0.100
    25       CTL2    109     DCPC     C1     25    -0.080000    12.0110   ; qtot -0.180
    26       HAL2    109     DCPC     HA     26     0.090000     1.0080   ; qtot -0.090
    27       HAL2    109     DCPC     HB     27     0.090000     1.0080   ; qtot  0.000
    28       CTL1    109     DCPC     C2     28     0.170000    12.0110   ; qtot  0.170
    29       HAL1    109     DCPC     HS     29     0.090000     1.0080   ; qtot  0.260
    30        OSL    109     DCPC    O21     30    -0.490000    15.9994   ; qtot -0.230
    31         CL    109     DCPC    C21     31     0.900000    12.0110   ; qtot  0.670
    32        OBL    109     DCPC    O22     32    -0.630000    15.9994   ; qtot  0.040
    33       CTL2    109     DCPC    C22     33    -0.220000    12.0110   ; qtot -0.180
    34       HAL2    109     DCPC    H2R     34     0.090000     1.0080   ; qtot -0.090
    35       HAL2    109     DCPC    H2S     35     0.090000     1.0080   ; qtot  0.000
    36       CTL2    109     DCPC     C3     36     0.080000    12.0110   ; qtot  0.080
    37       HAL2    109     DCPC     HX     37     0.090000     1.0080   ; qtot  0.170
    38       HAL2    109     DCPC     HY     38     0.090000     1.0080   ; qtot  0.260
    39        OSL    109     DCPC    O31     39    -0.490000    15.9994   ; qtot -0.230
    40         CL    109     DCPC    C31     40     0.900000    12.0110   ; qtot  0.670
    41        OBL    109     DCPC    O32     41    -0.630000    15.9994   ; qtot  0.040
    42       CTL2    109     DCPC    C32     42    -0.220000    12.0110   ; qtot -0.180
    43       HAL2    109     DCPC    H2X     43     0.090000     1.0080   ; qtot -0.090
    44       HAL2    109     DCPC    H2Y     44     0.090000     1.0080   ; qtot  0.000
    45       CTL2    109     DCPC    C23     45    -0.180000    12.0110   ; qtot -0.180
    46       HAL2    109     DCPC    H3R     46     0.090000     1.0080   ; qtot -0.090
    47       HAL2    109     DCPC    H3S     47     0.090000     1.0080   ; qtot  0.000
    48       CTL2    109     DCPC    C24     48    -0.180000    12.0110   ; qtot -0.180
    49       HAL2    109     DCPC    H4R     49     0.090000     1.0080   ; qtot -0.090
    50       HAL2    109     DCPC    H4S     50     0.090000     1.0080   ; qtot  0.000
    51       CTL2    109     DCPC    C25     51    -0.180000    12.0110   ; qtot -0.180
    52       HAL2    109     DCPC    H5R     52     0.090000     1.0080   ; qtot -0.090
    53       HAL2    109     DCPC    H5S     53     0.090000     1.0080   ; qtot  0.000
    54       CTL2    109     DCPC    C26     54    -0.180000    12.0110   ; qtot -0.180
    55       HAL2    109     DCPC    H6R     55     0.090000     1.0080   ; qtot -0.090
    56       HAL2    109     DCPC    H6S     56     0.090000     1.0080   ; qtot  0.000
    57       CTL2    109     DCPC    C27     57    -0.180000    12.0110   ; qtot -0.180
    58       HAL2    109     DCPC    H7R     58     0.090000     1.0080   ; qtot -0.090
    59       HAL2    109     DCPC    H7S     59     0.090000     1.0080   ; qtot  0.000
    60       CTL2    109     DCPC    C28     60    -0.180000    12.0110   ; qtot -0.180
    61       HAL2    109     DCPC    H8R     61     0.090000     1.0080   ; qtot -0.090
    62       HAL2    109     DCPC    H8S     62     0.090000     1.0080   ; qtot  0.000
    63       CTL2    109     DCPC    C29     63    -0.180000    12.0110   ; qtot -0.180
    64       HAL2    109     DCPC    H9R     64     0.090000     1.0080   ; qtot -0.090
    65       HAL2    109     DCPC    H9S     65     0.090000     1.0080   ; qtot  0.000
    66       CTL2    109     DCPC   C210     66    -0.180000    12.0110   ; qtot -0.180
    67       HAL2    109     DCPC   H10R     67     0.090000     1.0080   ; qtot -0.090
    68       HAL2    109     DCPC   H10S     68     0.090000     1.0080   ; qtot  0.000
    69       CTL3    109     DCPC   C211     69    -0.270000    12.0110   ; qtot -0.270
    70       HAL3    109     DCPC   H11R     70     0.090000     1.0080   ; qtot -0.180
    71       HAL3    109     DCPC   H11S     71     0.090000     1.0080   ; qtot -0.090
    72       HAL3    109     DCPC   H11T     72     0.090000     1.0080   ; qtot  0.000
    73       CTL2    109     DCPC    C33     73    -0.180000    12.0110   ; qtot -0.180
    74       HAL2    109     DCPC    H3X     74     0.090000     1.0080   ; qtot -0.090
    75       HAL2    109     DCPC    H3Y     75     0.090000     1.0080   ; qtot  0.000
    76       CTL2    109     DCPC    C34     76    -0.180000    12.0110   ; qtot -0.180
    77       HAL2    109     DCPC    H4X     77     0.090000     1.0080   ; qtot -0.090
    78       HAL2    109     DCPC    H4Y     78     0.090000     1.0080   ; qtot  0.000
    79       CTL2    109     DCPC    C35     79    -0.180000    12.0110   ; qtot -0.180
    80       HAL2    109     DCPC    H5X     80     0.090000     1.0080   ; qtot -0.090
    81       HAL2    109     DCPC    H5Y     81     0.090000     1.0080   ; qtot  0.000
    82       CTL2    109     DCPC    C36     82    -0.180000    12.0110   ; qtot -0.180
    83       HAL2    109     DCPC    H6X     83     0.090000     1.0080   ; qtot -0.090
    84       HAL2    109     DCPC    H6Y     84     0.090000     1.0080   ; qtot  0.000
    85       CTL2    109     DCPC    C37     85    -0.180000    12.0110   ; qtot -0.180
    86       HAL2    109     DCPC    H7X     86     0.090000     1.0080   ; qtot -0.090
    87       HAL2    109     DCPC    H7Y     87     0.090000     1.0080   ; qtot  0.000
    88       CTL2    109     DCPC    C38     88    -0.180000    12.0110   ; qtot -0.180
    89       HAL2    109     DCPC    H8X     89     0.090000     1.0080   ; qtot -0.090
    90       HAL2    109     DCPC    H8Y     90     0.090000     1.0080   ; qtot  0.000
    91       CTL2    109     DCPC    C39     91    -0.180000    12.0110   ; qtot -0.180
    92       HAL2    109     DCPC    H9X     92     0.090000     1.0080   ; qtot -0.090
    93       HAL2    109     DCPC    H9Y     93     0.090000     1.0080   ; qtot  0.000
    94       CTL2    109     DCPC   C310     94    -0.180000    12.0110   ; qtot -0.180
    95       HAL2    109     DCPC   H10X     95     0.090000     1.0080   ; qtot -0.090
    96       HAL2    109     DCPC   H10Y     96     0.090000     1.0080   ; qtot  0.000
    97       CTL3    109     DCPC   C311     97    -0.270000    12.0110   ; qtot -0.270
    98       HAL3    109     DCPC   H11X     98     0.090000     1.0080   ; qtot -0.180
    99       HAL3    109     DCPC   H11Y     99     0.090000     1.0080   ; qtot -0.090
   100       HAL3    109     DCPC   H11Z    100     0.090000     1.0080   ; qtot  0.000

[ bonds ]
; ai	aj	funct	b0	Kb
    1     2     1
    1     6     1
    1    10     1
    1    14     1
    2     3     1
    2     4     1
    2     5     1
    6     7     1
    6     8     1
    6     9     1
   10    11     1
   10    12     1
   10    13     1
   14    15     1
   14    16     1
   14    17     1
   17    18     1
   17    19     1
   17    24     1
   20    21     1
   20    22     1
   20    23     1
   24    20     1
   25    23     1
   25    26     1
   25    27     1
   25    28     1
   28    29     1
   28    30     1
   28    36     1
   30    31     1
   31    32     1
   31    33     1
   33    34     1
   33    35     1
   33    45     1
   36    37     1
   36    38     1
   36    39     1
   39    40     1
   40    41     1
   40    42     1
   42    43     1
   42    44     1
   42    73     1
   45    46     1
   45    47     1
   45    48     1
   48    49     1
   48    50     1
   48    51     1
   51    52     1
   51    53     1
   51    54     1
   54    55     1
   54    56     1
   54    57     1
   57    58     1
   57    59     1
   57    60     1
   60    61     1
   60    62     1
   60    63     1
   63    64     1
   63    65     1
   63    66     1
   66    67     1
   66    68     1
   66    69     1
   69    70     1
   69    71     1
   69    72     1
   73    74     1
   73    75     1
   73    76     1
   76    77     1
   76    78     1
   76    79     1
   79    80     1
   79    81     1
   79    82     1
   82    83     1
   82    84     1
   82    85     1
   85    86     1
   85    87     1
   85    88     1
   88    89     1
   88    90     1
   88    91     1
   91    92     1
   91    93     1
   91    94     1
   94    95     1
   94    96     1
   94    97     1
   97    98     1
   97    99     1
   97   100     1

[ pairs ]
; ai	aj	funct	c6	c12 or
; ai	aj	funct	fudgeQQ	q1	q2	c6	c12
    1    18     1
    1    19     1
    1    24     1
    2     7     1
    2     8     1
    2     9     1
    2    11     1
    2    12     1
    2    13     1
    2    15     1
    2    16     1
    2    17     1
    3     6     1
    3    10     1
    3    14     1
    4     6     1
    4    10     1
    4    14     1
    5     6     1
    5    10     1
    5    14     1
    6    11     1
    6    12     1
    6    13     1
    6    15     1
    6    16     1
    6    17     1
    7    10     1
    7    14     1
    8    10     1
    8    14     1
    9    10     1
    9    14     1
   10    15     1
   10    16     1
   10    17     1
   11    14     1
   12    14     1
   13    14     1
   14    20     1
   15    18     1
   15    19     1
   15    24     1
   16    18     1
   16    19     1
   16    24     1
   17    21     1
   17    22     1
   17    23     1
   18    20     1
   19    20     1
   20    26     1
   20    27     1
   20    28     1
   21    25     1
   22    25     1
   23    29     1
   23    30     1
   23    36     1
   24    25     1
   25    31     1
   25    37     1
   25    38     1
   25    39     1
   26    29     1
   26    30     1
   26    36     1
   27    29     1
   27    30     1
   27    36     1
   28    32     1
   28    33     1
   28    40     1
   29    31     1
   29    37     1
   29    38     1
   29    39     1
   30    34     1
   30    35     1
   30    37     1
   30    38     1
   30    39     1
   30    45     1
   31    36     1
   31    46     1
   31    47     1
   31    48     1
   32    34     1
   32    35     1
   32    45     1
   33    49     1
   33    50     1
   33    51     1
   34    46     1
   34    47     1
   34    48     1
   35    46     1
   35    47     1
   35    48     1
   36    41     1
   36    42     1
   37    40     1
   38    40     1
   39    43     1
   39    44     1
   39    73     1
   40    74     1
   40    75     1
   40    76     1
   41    43     1
   41    44     1
   41    73     1
   42    77     1
   42    78     1
   42    79     1
   43    74     1
   43    75     1
   43    76     1
   44    74     1
   44    75     1
   44    76     1
   45    52     1
   45    53     1
   45    54     1
   46    49     1
   46    50     1
   46    51     1
   47    49     1
   47    50     1
   47    51     1
   48    55     1
   48    56     1
   48    57     1
   49    52     1
   49    53     1
   49    54     1
   50    52     1
   50    53     1
   50    54     1
   51    58     1
   51    59     1
   51    60     1
   52    55     1
   52    56     1
   52    57     1
   53    55     1
   53    56     1
   53    57     1
   54    61     1
   54    62     1
   54    63     1
   55    58     1
   55    59     1
   55    60     1
   56    58     1
   56    59     1
   56    60     1
   57    64     1
   57    65     1
   57    66     1
   58    61     1
   58    62     1
   58    63     1
   59    61     1
   59    62     1
   59    63     1
   60    67     1
   60    68     1
   60    69     1
   61    64     1
   61    65     1
   61    66     1
   62    64     1
   62    65     1
   62    66     1
   63    70     1
   63    71     1
   63    72     1
   64    67     1
   64    68     1
   64    69     1
   65    67     1
   65    68     1
   65    69     1
   67    70     1
   67    71     1
   67    72     1
   68    70     1
   68    71     1
   68    72     1
   73    80     1
   73    81     1
   73    82     1
   74    77     1
   74    78     1
   74    79     1
   75    77     1
   75    78     1
   75    79     1
   76    83     1
   76    84     1
   76    85     1
   77    80     1
   77    81     1
   77    82     1
   78    80     1
   78    81     1
   78    82     1
   79    86     1
   79    87     1
   79    88     1
   80    83     1
   80    84     1
   80    85     1
   81    83     1
   81    84     1
   81    85     1
   82    89     1
   82    90     1
   82    91     1
   83    86     1
   83    87     1
   83    88     1
   84    86     1
   84    87     1
   84    88     1
   85    92     1
   85    93     1
   85    94     1
   86    89     1
   86    90     1
   86    91     1
   87    89     1
   87    90     1
   87    91     1
   88    95     1
   88    96     1
   88    97     1
   89    92     1
   89    93     1
   89    94     1
   90    92     1
   90    93     1
   90    94     1
   91    98     1
   91    99     1
   91   100     1
   92    95     1
   92    96     1
   92    97     1
   93    95     1
   93    96     1
   93    97     1
   95    98     1
   95    99     1
   95   100     1
   96    98     1
   96    99     1
   96   100     1

[ angles ] 
; ai	aj	ak	funct	th0	cth	S0	Kub
    2     1     6     5
    2     1    10     5
    2     1    14     5
    6     1    10     5
    6     1    14     5
   10     1    14     5
    1     2     3     5
    1     2     4     5
    1     2     5     5
    3     2     4     5
    3     2     5     5
    4     2     5     5
    1     6     7     5
    1     6     8     5
    1     6     9     5
    7     6     8     5
    7     6     9     5
    8     6     9     5
    1    10    11     5
    1    10    12     5
    1    10    13     5
   11    10    12     5
   11    10    13     5
   12    10    13     5
    1    14    15     5
    1    14    16     5
    1    14    17     5
   15    14    16     5
   15    14    17     5
   16    14    17     5
   14    17    18     5
   14    17    19     5
   14    17    24     5
   18    17    19     5
   18    17    24     5
   19    17    24     5
   21    20    22     5
   21    20    23     5
   21    20    24     5
   22    20    23     5
   22    20    24     5
   23    20    24     5
   20    23    25     5
   17    24    20     5
   23    25    26     5
   23    25    27     5
   23    25    28     5
   26    25    27     5
   26    25    28     5
   27    25    28     5
   25    28    29     5
   25    28    30     5
   25    28    36     5
   29    28    30     5
   29    28    36     5
   30    28    36     5
   28    30    31     5
   30    31    32     5
   30    31    33     5
   32    31    33     5
   31    33    34     5
   31    33    35     5
   31    33    45     5
   34    33    35     5
   34    33    45     5
   35    33    45     5
   28    36    37     5
   28    36    38     5
   28    36    39     5
   37    36    38     5
   37    36    39     5
   38    36    39     5
   36    39    40     5
   39    40    41     5
   39    40    42     5
   41    40    42     5
   40    42    43     5
   40    42    44     5
   40    42    73     5
   43    42    44     5
   43    42    73     5
   44    42    73     5
   33    45    46     5
   33    45    47     5
   33    45    48     5
   46    45    47     5
   46    45    48     5
   47    45    48     5
   45    48    49     5
   45    48    50     5
   45    48    51     5
   49    48    50     5
   49    48    51     5
   50    48    51     5
   48    51    52     5
   48    51    53     5
   48    51    54     5
   52    51    53     5
   52    51    54     5
   53    51    54     5
   51    54    55     5
   51    54    56     5
   51    54    57     5
   55    54    56     5
   55    54    57     5
   56    54    57     5
   54    57    58     5
   54    57    59     5
   54    57    60     5
   58    57    59     5
   58    57    60     5
   59    57    60     5
   57    60    61     5
   57    60    62     5
   57    60    63     5
   61    60    62     5
   61    60    63     5
   62    60    63     5
   60    63    64     5
   60    63    65     5
   60    63    66     5
   64    63    65     5
   64    63    66     5
   65    63    66     5
   63    66    67     5
   63    66    68     5
   63    66    69     5
   67    66    68     5
   67    66    69     5
   68    66    69     5
   66    69    70     5
   66    69    71     5
   66    69    72     5
   70    69    71     5
   70    69    72     5
   71    69    72     5
   42    73    74     5
   42    73    75     5
   42    73    76     5
   74    73    75     5
   74    73    76     5
   75    73    76     5
   73    76    77     5
   73    76    78     5
   73    76    79     5
   77    76    78     5
   77    76    79     5
   78    76    79     5
   76    79    80     5
   76    79    81     5
   76    79    82     5
   80    79    81     5
   80    79    82     5
   81    79    82     5
   79    82    83     5
   79    82    84     5
   79    82    85     5
   83    82    84     5
   83    82    85     5
   84    82    85     5
   82    85    86     5
   82    85    87     5
   82    85    88     5
   86    85    87     5
   86    85    88     5
   87    85    88     5
   85    88    89     5
   85    88    90     5
   85    88    91     5
   89    88    90     5
   89    88    91     5
   90    88    91     5
   88    91    92     5
   88    91    93     5
   88    91    94     5
   92    91    93     5
   92    91    94     5
   93    91    94     5
   91    94    95     5
   91    94    96     5
   91    94    97     5
   95    94    96     5
   95    94    97     5
   96    94    97     5
   94    97    98     5
   94    97    99     5
   94    97   100     5
   98    97    99     5
   98    97   100     5
   99    97   100     5

[ dihedrals ]
; ai	aj	ak	al	funct	phi0	cp	mult
    2     1     6     7     9
    2     1     6     8     9
    2     1     6     9     9
    2     1    10    11     9
    2     1    10    12     9
    2     1    10    13     9
    6     1    10    11     9
    6     1    10    12     9
    6     1    10    13     9
    2     1    14    15     9
    2     1    14    16     9
    2     1    14    17     9
    6     1    14    15     9
    6     1    14    16     9
    6     1    14    17     9
   10     1    14    15     9
   10     1    14    16     9
   10     1    14    17     9
    3     2     1     6     9
    3     2     1    10     9
    3     2     1    14     9
    4     2     1     6     9
    4     2     1    10     9
    4     2     1    14     9
    5     2     1     6     9
    5     2     1    10     9
    5     2     1    14     9
    7     6     1    10     9
    7     6     1    14     9
    8     6     1    10     9
    8     6     1    14     9
    9     6     1    10     9
    9     6     1    14     9
   11    10     1    14     9
   12    10     1    14     9
   13    10     1    14     9
    1    14    17    18     9
    1    14    17    19     9
    1    14    17    24     9
   15    14    17    18     9
   15    14    17    19     9
   15    14    17    24     9
   16    14    17    18     9
   16    14    17    19     9
   16    14    17    24     9
   14    17    24    20     9
   18    17    24    20     9
   19    17    24    20     9
   21    20    23    25     9
   22    20    23    25     9
   24    20    23    25     9
   20    23    25    26     9
   20    23    25    27     9
   20    23    25    28     9
   17    24    20    21     9
   17    24    20    22     9
   17    24    20    23     9
   23    25    28    29     9
   23    25    28    30     9
   23    25    28    36     9
   26    25    28    29     9
   26    25    28    30     9
   26    25    28    36     9
   27    25    28    29     9
   27    25    28    30     9
   27    25    28    36     9
   25    28    30    31     9
   29    28    30    31     9
   25    28    36    37     9
   25    28    36    38     9
   25    28    36    39     9
   29    28    36    37     9
   29    28    36    38     9
   29    28    36    39     9
   30    28    36    37     9
   30    28    36    38     9
   30    28    36    39     9
   31    30    28    36     9
   28    30    31    32     9
   28    30    31    33     9
   30    31    33    34     9
   30    31    33    35     9
   30    31    33    45     9
   32    31    33    34     9
   32    31    33    35     9
   32    31    33    45     9
   31    33    45    46     9
   31    33    45    47     9
   31    33    45    48     9
   34    33    45    46     9
   34    33    45    47     9
   34    33    45    48     9
   35    33    45    46     9
   35    33    45    47     9
   35    33    45    48     9
   28    36    39    40     9
   37    36    39    40     9
   38    36    39    40     9
   36    39    40    41     9
   36    39    40    42     9
   39    40    42    43     9
   39    40    42    44     9
   39    40    42    73     9
   41    40    42    43     9
   41    40    42    44     9
   41    40    42    73     9
   40    42    73    74     9
   40    42    73    75     9
   40    42    73    76     9
   43    42    73    74     9
   43    42    73    75     9
   43    42    73    76     9
   44    42    73    74     9
   44    42    73    75     9
   44    42    73    76     9
   33    45    48    49     9
   33    45    48    50     9
   33    45    48    51     9
   46    45    48    49     9
   46    45    48    50     9
   46    45    48    51     9
   47    45    48    49     9
   47    45    48    50     9
   47    45    48    51     9
   45    48    51    52     9
   45    48    51    53     9
   45    48    51    54     9
   49    48    51    52     9
   49    48    51    53     9
   49    48    51    54     9
   50    48    51    52     9
   50    48    51    53     9
   50    48    51    54     9
   48    51    54    55     9
   48    51    54    56     9
   48    51    54    57     9
   52    51    54    55     9
   52    51    54    56     9
   52    51    54    57     9
   53    51    54    55     9
   53    51    54    56     9
   53    51    54    57     9
   51    54    57    58     9
   51    54    57    59     9
   51    54    57    60     9
   55    54    57    58     9
   55    54    57    59     9
   55    54    57    60     9
   56    54    57    58     9
   56    54    57    59     9
   56    54    57    60     9
   54    57    60    61     9
   54    57    60    62     9
   54    57    60    63     9
   58    57    60    61     9
   58    57    60    62     9
   58    57    60    63     9
   59    57    60    61     9
   59    57    60    62     9
   59    57    60    63     9
   57    60    63    64     9
   57    60    63    65     9
   57    60    63    66     9
   61    60    63    64     9
   61    60    63    65     9
   61    60    63    66     9
   62    60    63    64     9
   62    60    63    65     9
   62    60    63    66     9
   60    63    66    67     9
   60    63    66    68     9
   60    63    66    69     9
   64    63    66    67     9
   64    63    66    68     9
   64    63    66    69     9
   65    63    66    67     9
   65    63    66    68     9
   65    63    66    69     9
   63    66    69    70     9
   63    66    69    71     9
   63    66    69    72     9
   67    66    69    70     9
   67    66    69    71     9
   67    66    69    72     9
   68    66    69    70     9
   68    66    69    71     9
   68    66    69    72     9
   42    73    76    77     9
   42    73    76    78     9
   42    73    76    79     9
   74    73    76    77     9
   74    73    76    78     9
   74    73    76    79     9
   75    73    76    77     9
   75    73    76    78     9
   75    73    76    79     9
   73    76    79    80     9
   73    76    79    81     9
   73    76    79    82     9
   77    76    79    80     9
   77    76    79    81     9
   77    76    79    82     9
   78    76    79    80     9
   78    76    79    81     9
   78    76    79    82     9
   76    79    82    83     9
   76    79    82    84     9
   76    79    82    85     9
   80    79    82    83     9
   80    79    82    84     9
   80    79    82    85     9
   81    79    82    83     9
   81    79    82    84     9
   81    79    82    85     9
   79    82    85    86     9
   79    82    85    87     9
   79    82    85    88     9
   83    82    85    86     9
   83    82    85    87     9
   83    82    85    88     9
   84    82    85    86     9
   84    82    85    87     9
   84    82    85    88     9
   82    85    88    89     9
   82    85    88    90     9
   82    85    88    91     9
   86    85    88    89     9
   86    85    88    90     9
   86    85    88    91     9
   87    85    88    89     9
   87    85    88    90     9
   87    85    88    91     9
   85    88    91    92     9
   85    88    91    93     9
   85    88    91    94     9
   89    88    91    92     9
   89    88    91    93     9
   89    88    91    94     9
   90    88    91    92     9
   90    88    91    93     9
   90    88    91    94     9
   88    91    94    95     9
   88    91    94    96     9
   88    91    94    97     9
   92    91    94    95     9
   92    91    94    96     9
   92    91    94    97     9
   93    91    94    95     9
   93    91    94    96     9
   93    91    94    97     9
   91    94    97    98     9
   91    94    97    99     9
   91    94    97   100     9
   95    94    97    98     9
   95    94    97    99     9
   95    94    97   100     9
   96    94    97    98     9
   96    94    97    99     9
   96    94    97   100     9

[ dihedrals ]
; ai	aj	ak	al	funct	q0	cq
   31    30    33    32     2
   40    39    42    41     2

#ifdef POSRES
[ position_restraints ]
   20     1     0.0             0.0            POSRES_FC_LIPID
#endif

#ifdef DIHRES
[ dihedral_restraints ]
   25    36    28    30     1   -120.0      2.5       DIHRES_FC
#endif
