;;
;; Generated by CHARMM-GUI FF-Converter
;;
;; Correspondance:
;; jul316@lehigh.edu or wonpil@lehigh.edu
;;
;; GROMACS topology file for DDOPS
;;


[ moleculetype ]
; name	nrexcl
DDOPS	     3

[ atoms ]
; nr	type	resnr	residu	atom	cgnr	charge	mass
     1       NH3L    112    DDOPS      N      1    -0.300000    14.0070   ; qtot -0.300
     2        HCL    112    DDOPS    HN1      2     0.330000     1.0080   ; qtot  0.030
     3        HCL    112    DDOPS    HN2      3     0.330000     1.0080   ; qtot  0.360
     4        HCL    112    DDOPS    HN3      4     0.330000     1.0080   ; qtot  0.690
     5       CTL1    112    DDOPS    C12      5     0.210000    12.0110   ; qtot  0.900
     6        HBL    112    DDOPS   H12A      6     0.100000     1.0080   ; qtot  1.000
     7        CCL    112    DDOPS    C13      7     0.340000    12.0110   ; qtot  1.340
     8        OCL    112    DDOPS   O13A      8    -0.670000    15.9994   ; qtot  0.670
     9        OCL    112    DDOPS   O13B      9    -0.670000    15.9994   ; qtot  0.000
    10       CTL2    112    DDOPS    C11     10    -0.080000    12.0110   ; qtot -0.080
    11       HAL2    112    DDOPS   H11A     11     0.090000     1.0080   ; qtot  0.010
    12       HAL2    112    DDOPS   H11B     12     0.090000     1.0080   ; qtot  0.100
    13         PL    112    DDOPS      P     13     1.500000    30.9740   ; qtot  1.600
    14        O2L    112    DDOPS    O13     14    -0.780000    15.9994   ; qtot  0.820
    15        O2L    112    DDOPS    O14     15    -0.780000    15.9994   ; qtot  0.040
    16       OSLP    112    DDOPS    O12     16    -0.570000    15.9994   ; qtot -0.530
    17       OSLP    112    DDOPS    O11     17    -0.570000    15.9994   ; qtot -1.100
    18       CTL2    112    DDOPS     C1     18    -0.080000    12.0110   ; qtot -1.180
    19       HAL2    112    DDOPS     HA     19     0.090000     1.0080   ; qtot -1.090
    20       HAL2    112    DDOPS     HB     20     0.090000     1.0080   ; qtot -1.000
    21       CTL1    112    DDOPS     C2     21     0.170000    12.0110   ; qtot -0.830
    22       HAL1    112    DDOPS     HS     22     0.090000     1.0080   ; qtot -0.740
    23        OSL    112    DDOPS    O21     23    -0.490000    15.9994   ; qtot -1.230
    24         CL    112    DDOPS    C21     24     0.900000    12.0110   ; qtot -0.330
    25        OBL    112    DDOPS    O22     25    -0.630000    15.9994   ; qtot -0.960
    26       CTL2    112    DDOPS    C22     26    -0.220000    12.0110   ; qtot -1.180
    27       HAL2    112    DDOPS    H2R     27     0.090000     1.0080   ; qtot -1.090
    28       HAL2    112    DDOPS    H2S     28     0.090000     1.0080   ; qtot -1.000
    29       CTL2    112    DDOPS     C3     29     0.080000    12.0110   ; qtot -0.920
    30       HAL2    112    DDOPS     HX     30     0.090000     1.0080   ; qtot -0.830
    31       HAL2    112    DDOPS     HY     31     0.090000     1.0080   ; qtot -0.740
    32        OSL    112    DDOPS    O31     32    -0.490000    15.9994   ; qtot -1.230
    33         CL    112    DDOPS    C31     33     0.900000    12.0110   ; qtot -0.330
    34        OBL    112    DDOPS    O32     34    -0.630000    15.9994   ; qtot -0.960
    35       CTL2    112    DDOPS    C32     35    -0.220000    12.0110   ; qtot -1.180
    36       HAL2    112    DDOPS    H2X     36     0.090000     1.0080   ; qtot -1.090
    37       HAL2    112    DDOPS    H2Y     37     0.090000     1.0080   ; qtot -1.000
    38       CTL2    112    DDOPS    C23     38    -0.180000    12.0110   ; qtot -1.180
    39       HAL2    112    DDOPS    H3R     39     0.090000     1.0080   ; qtot -1.090
    40       HAL2    112    DDOPS    H3S     40     0.090000     1.0080   ; qtot -1.000
    41       CEL1    112    DDOPS    C24     41    -0.150000    12.0110   ; qtot -1.150
    42       HEL1    112    DDOPS    H4R     42     0.150000     1.0080   ; qtot -1.000
    43       CEL1    112    DDOPS    C25     43    -0.150000    12.0110   ; qtot -1.150
    44       HEL1    112    DDOPS    H5R     44     0.150000     1.0080   ; qtot -1.000
    45       CTL2    112    DDOPS    C26     45    -0.180000    12.0110   ; qtot -1.180
    46       HAL2    112    DDOPS    H6R     46     0.090000     1.0080   ; qtot -1.090
    47       HAL2    112    DDOPS    H6S     47     0.090000     1.0080   ; qtot -1.000
    48       CEL1    112    DDOPS    C27     48    -0.150000    12.0110   ; qtot -1.150
    49       HEL1    112    DDOPS    H7R     49     0.150000     1.0080   ; qtot -1.000
    50       CEL1    112    DDOPS    C28     50    -0.150000    12.0110   ; qtot -1.150
    51       HEL1    112    DDOPS    H8R     51     0.150000     1.0080   ; qtot -1.000
    52       CTL2    112    DDOPS    C29     52    -0.180000    12.0110   ; qtot -1.180
    53       HAL2    112    DDOPS    H9R     53     0.090000     1.0080   ; qtot -1.090
    54       HAL2    112    DDOPS    H9S     54     0.090000     1.0080   ; qtot -1.000
    55       CEL1    112    DDOPS   C210     55    -0.150000    12.0110   ; qtot -1.150
    56       HEL1    112    DDOPS   H10R     56     0.150000     1.0080   ; qtot -1.000
    57       CEL1    112    DDOPS   C211     57    -0.150000    12.0110   ; qtot -1.150
    58       HEL1    112    DDOPS   H11R     58     0.150000     1.0080   ; qtot -1.000
    59       CTL2    112    DDOPS   C212     59    -0.180000    12.0110   ; qtot -1.180
    60       HAL2    112    DDOPS   H12R     60     0.090000     1.0080   ; qtot -1.090
    61       HAL2    112    DDOPS   H12S     61     0.090000     1.0080   ; qtot -1.000
    62       CEL1    112    DDOPS   C213     62    -0.150000    12.0110   ; qtot -1.150
    63       HEL1    112    DDOPS   H13R     63     0.150000     1.0080   ; qtot -1.000
    64       CEL1    112    DDOPS   C214     64    -0.150000    12.0110   ; qtot -1.150
    65       HEL1    112    DDOPS   H14R     65     0.150000     1.0080   ; qtot -1.000
    66       CTL2    112    DDOPS   C215     66    -0.180000    12.0110   ; qtot -1.180
    67       HAL2    112    DDOPS   H15R     67     0.090000     1.0080   ; qtot -1.090
    68       HAL2    112    DDOPS   H15S     68     0.090000     1.0080   ; qtot -1.000
    69       CEL1    112    DDOPS   C216     69    -0.150000    12.0110   ; qtot -1.150
    70       HEL1    112    DDOPS   H16R     70     0.150000     1.0080   ; qtot -1.000
    71       CEL1    112    DDOPS   C217     71    -0.150000    12.0110   ; qtot -1.150
    72       HEL1    112    DDOPS   H17R     72     0.150000     1.0080   ; qtot -1.000
    73       CTL2    112    DDOPS   C218     73    -0.180000    12.0110   ; qtot -1.180
    74       HAL2    112    DDOPS   H18R     74     0.090000     1.0080   ; qtot -1.090
    75       HAL2    112    DDOPS   H18S     75     0.090000     1.0080   ; qtot -1.000
    76       CEL1    112    DDOPS   C219     76    -0.150000    12.0110   ; qtot -1.150
    77       HEL1    112    DDOPS   H19R     77     0.150000     1.0080   ; qtot -1.000
    78       CEL1    112    DDOPS   C220     78    -0.150000    12.0110   ; qtot -1.150
    79       HEL1    112    DDOPS   H20R     79     0.150000     1.0080   ; qtot -1.000
    80       CTL2    112    DDOPS   C221     80    -0.180000    12.0110   ; qtot -1.180
    81       HAL2    112    DDOPS   H21R     81     0.090000     1.0080   ; qtot -1.090
    82       HAL2    112    DDOPS   H21S     82     0.090000     1.0080   ; qtot -1.000
    83       CTL3    112    DDOPS   C222     83    -0.270000    12.0110   ; qtot -1.270
    84       HAL3    112    DDOPS   H22R     84     0.090000     1.0080   ; qtot -1.180
    85       HAL3    112    DDOPS   H22S     85     0.090000     1.0080   ; qtot -1.090
    86       HAL3    112    DDOPS   H22T     86     0.090000     1.0080   ; qtot -1.000
    87       CTL2    112    DDOPS    C33     87    -0.180000    12.0110   ; qtot -1.180
    88       HAL2    112    DDOPS    H3X     88     0.090000     1.0080   ; qtot -1.090
    89       HAL2    112    DDOPS    H3Y     89     0.090000     1.0080   ; qtot -1.000
    90       CEL1    112    DDOPS    C34     90    -0.150000    12.0110   ; qtot -1.150
    91       HEL1    112    DDOPS    H4X     91     0.150000     1.0080   ; qtot -1.000
    92       CEL1    112    DDOPS    C35     92    -0.150000    12.0110   ; qtot -1.150
    93       HEL1    112    DDOPS    H5X     93     0.150000     1.0080   ; qtot -1.000
    94       CTL2    112    DDOPS    C36     94    -0.180000    12.0110   ; qtot -1.180
    95       HAL2    112    DDOPS    H6X     95     0.090000     1.0080   ; qtot -1.090
    96       HAL2    112    DDOPS    H6Y     96     0.090000     1.0080   ; qtot -1.000
    97       CEL1    112    DDOPS    C37     97    -0.150000    12.0110   ; qtot -1.150
    98       HEL1    112    DDOPS    H7X     98     0.150000     1.0080   ; qtot -1.000
    99       CEL1    112    DDOPS    C38     99    -0.150000    12.0110   ; qtot -1.150
   100       HEL1    112    DDOPS    H8X    100     0.150000     1.0080   ; qtot -1.000
   101       CTL2    112    DDOPS    C39    101    -0.180000    12.0110   ; qtot -1.180
   102       HAL2    112    DDOPS    H9X    102     0.090000     1.0080   ; qtot -1.090
   103       HAL2    112    DDOPS    H9Y    103     0.090000     1.0080   ; qtot -1.000
   104       CEL1    112    DDOPS   C310    104    -0.150000    12.0110   ; qtot -1.150
   105       HEL1    112    DDOPS   H10X    105     0.150000     1.0080   ; qtot -1.000
   106       CEL1    112    DDOPS   C311    106    -0.150000    12.0110   ; qtot -1.150
   107       HEL1    112    DDOPS   H11X    107     0.150000     1.0080   ; qtot -1.000
   108       CTL2    112    DDOPS   C312    108    -0.180000    12.0110   ; qtot -1.180
   109       HAL2    112    DDOPS   H12X    109     0.090000     1.0080   ; qtot -1.090
   110       HAL2    112    DDOPS   H12Y    110     0.090000     1.0080   ; qtot -1.000
   111       CEL1    112    DDOPS   C313    111    -0.150000    12.0110   ; qtot -1.150
   112       HEL1    112    DDOPS   H13X    112     0.150000     1.0080   ; qtot -1.000
   113       CEL1    112    DDOPS   C314    113    -0.150000    12.0110   ; qtot -1.150
   114       HEL1    112    DDOPS   H14X    114     0.150000     1.0080   ; qtot -1.000
   115       CTL2    112    DDOPS   C315    115    -0.180000    12.0110   ; qtot -1.180
   116       HAL2    112    DDOPS   H15X    116     0.090000     1.0080   ; qtot -1.090
   117       HAL2    112    DDOPS   H15Y    117     0.090000     1.0080   ; qtot -1.000
   118       CEL1    112    DDOPS   C316    118    -0.150000    12.0110   ; qtot -1.150
   119       HEL1    112    DDOPS   H16X    119     0.150000     1.0080   ; qtot -1.000
   120       CEL1    112    DDOPS   C317    120    -0.150000    12.0110   ; qtot -1.150
   121       HEL1    112    DDOPS   H17X    121     0.150000     1.0080   ; qtot -1.000
   122       CTL2    112    DDOPS   C318    122    -0.180000    12.0110   ; qtot -1.180
   123       HAL2    112    DDOPS   H18X    123     0.090000     1.0080   ; qtot -1.090
   124       HAL2    112    DDOPS   H18Y    124     0.090000     1.0080   ; qtot -1.000
   125       CEL1    112    DDOPS   C319    125    -0.150000    12.0110   ; qtot -1.150
   126       HEL1    112    DDOPS   H19X    126     0.150000     1.0080   ; qtot -1.000
   127       CEL1    112    DDOPS   C320    127    -0.150000    12.0110   ; qtot -1.150
   128       HEL1    112    DDOPS   H20X    128     0.150000     1.0080   ; qtot -1.000
   129       CTL2    112    DDOPS   C321    129    -0.180000    12.0110   ; qtot -1.180
   130       HAL2    112    DDOPS   H21X    130     0.090000     1.0080   ; qtot -1.090
   131       HAL2    112    DDOPS   H21Y    131     0.090000     1.0080   ; qtot -1.000
   132       CTL3    112    DDOPS   C322    132    -0.270000    12.0110   ; qtot -1.270
   133       HAL3    112    DDOPS   H22X    133     0.090000     1.0080   ; qtot -1.180
   134       HAL3    112    DDOPS   H22Y    134     0.090000     1.0080   ; qtot -1.090
   135       HAL3    112    DDOPS   H22Z    135     0.090000     1.0080   ; qtot -1.000

[ bonds ]
; ai	aj	funct	b0	Kb
    1     2     1
    1     3     1
    1     4     1
    1     5     1
    5     6     1
    7     5     1
    5    10     1
    7     8     1
    9     7     1
   10    11     1
   10    12     1
   10    16     1
   13    14     1
   13    15     1
   16    13     1
   13    17     1
   18    17     1
   18    19     1
   18    20     1
   18    21     1
   21    22     1
   21    23     1
   21    29     1
   23    24     1
   24    25     1
   24    26     1
   26    27     1
   26    28     1
   26    38     1
   29    30     1
   29    31     1
   29    32     1
   32    33     1
   33    34     1
   33    35     1
   35    36     1
   35    37     1
   35    87     1
   38    39     1
   38    40     1
   38    41     1
   41    42     1
   41    43     1
   43    44     1
   43    45     1
   45    46     1
   45    47     1
   45    48     1
   48    49     1
   48    50     1
   50    51     1
   50    52     1
   52    53     1
   52    54     1
   52    55     1
   55    56     1
   55    57     1
   57    58     1
   57    59     1
   59    60     1
   59    61     1
   59    62     1
   62    63     1
   62    64     1
   64    65     1
   64    66     1
   66    67     1
   66    68     1
   66    69     1
   69    70     1
   69    71     1
   71    72     1
   71    73     1
   73    74     1
   73    75     1
   73    76     1
   76    77     1
   76    78     1
   78    79     1
   78    80     1
   80    81     1
   80    82     1
   80    83     1
   83    84     1
   83    85     1
   83    86     1
   87    88     1
   87    89     1
   87    90     1
   90    91     1
   90    92     1
   92    93     1
   92    94     1
   94    95     1
   94    96     1
   94    97     1
   97    98     1
   97    99     1
   99   100     1
   99   101     1
  101   102     1
  101   103     1
  101   104     1
  104   105     1
  104   106     1
  106   107     1
  106   108     1
  108   109     1
  108   110     1
  108   111     1
  111   112     1
  111   113     1
  113   114     1
  113   115     1
  115   116     1
  115   117     1
  115   118     1
  118   119     1
  118   120     1
  120   121     1
  120   122     1
  122   123     1
  122   124     1
  122   125     1
  125   126     1
  125   127     1
  127   128     1
  127   129     1
  129   130     1
  129   131     1
  129   132     1
  132   133     1
  132   134     1
  132   135     1

[ pairs ]
; ai	aj	funct	c6	c12 or
; ai	aj	funct	fudgeQQ	q1	q2	c6	c12
    1     8     1
    1     9     1
    1    11     1
    1    12     1
    1    16     1
    2     6     1
    2     7     1
    2    10     1
    3     6     1
    3     7     1
    3    10     1
    4     6     1
    4     7     1
    4    10     1
    5    13     1
    6     8     1
    6     9     1
    6    11     1
    6    12     1
    6    16     1
    7    11     1
    7    12     1
    7    16     1
    8    10     1
    9    10     1
   10    14     1
   10    15     1
   10    17     1
   11    13     1
   12    13     1
   13    19     1
   13    20     1
   13    21     1
   14    18     1
   15    18     1
   16    18     1
   17    22     1
   17    23     1
   17    29     1
   18    24     1
   18    30     1
   18    31     1
   18    32     1
   19    22     1
   19    23     1
   19    29     1
   20    22     1
   20    23     1
   20    29     1
   21    25     1
   21    26     1
   21    33     1
   22    24     1
   22    30     1
   22    31     1
   22    32     1
   23    27     1
   23    28     1
   23    30     1
   23    31     1
   23    32     1
   23    38     1
   24    29     1
   24    39     1
   24    40     1
   24    41     1
   25    27     1
   25    28     1
   25    38     1
   26    42     1
   26    43     1
   27    39     1
   27    40     1
   27    41     1
   28    39     1
   28    40     1
   28    41     1
   29    34     1
   29    35     1
   30    33     1
   31    33     1
   32    36     1
   32    37     1
   32    87     1
   33    88     1
   33    89     1
   33    90     1
   34    36     1
   34    37     1
   34    87     1
   35    91     1
   35    92     1
   36    88     1
   36    89     1
   36    90     1
   37    88     1
   37    89     1
   37    90     1
   38    44     1
   38    45     1
   39    42     1
   39    43     1
   40    42     1
   40    43     1
   41    46     1
   41    47     1
   41    48     1
   42    44     1
   42    45     1
   43    49     1
   43    50     1
   44    46     1
   44    47     1
   44    48     1
   45    51     1
   45    52     1
   46    49     1
   46    50     1
   47    49     1
   47    50     1
   48    53     1
   48    54     1
   48    55     1
   49    51     1
   49    52     1
   50    56     1
   50    57     1
   51    53     1
   51    54     1
   51    55     1
   52    58     1
   52    59     1
   53    56     1
   53    57     1
   54    56     1
   54    57     1
   55    60     1
   55    61     1
   55    62     1
   56    58     1
   56    59     1
   57    63     1
   57    64     1
   58    60     1
   58    61     1
   58    62     1
   59    65     1
   59    66     1
   60    63     1
   60    64     1
   61    63     1
   61    64     1
   62    67     1
   62    68     1
   62    69     1
   63    65     1
   63    66     1
   64    70     1
   64    71     1
   65    67     1
   65    68     1
   65    69     1
   66    72     1
   66    73     1
   67    70     1
   67    71     1
   68    70     1
   68    71     1
   69    74     1
   69    75     1
   69    76     1
   70    72     1
   70    73     1
   71    77     1
   71    78     1
   72    74     1
   72    75     1
   72    76     1
   73    79     1
   73    80     1
   74    77     1
   74    78     1
   75    77     1
   75    78     1
   76    81     1
   76    82     1
   76    83     1
   77    79     1
   77    80     1
   78    84     1
   78    85     1
   78    86     1
   79    81     1
   79    82     1
   79    83     1
   81    84     1
   81    85     1
   81    86     1
   82    84     1
   82    85     1
   82    86     1
   87    93     1
   87    94     1
   88    91     1
   88    92     1
   89    91     1
   89    92     1
   90    95     1
   90    96     1
   90    97     1
   91    93     1
   91    94     1
   92    98     1
   92    99     1
   93    95     1
   93    96     1
   93    97     1
   94   100     1
   94   101     1
   95    98     1
   95    99     1
   96    98     1
   96    99     1
   97   102     1
   97   103     1
   97   104     1
   98   100     1
   98   101     1
   99   105     1
   99   106     1
  100   102     1
  100   103     1
  100   104     1
  101   107     1
  101   108     1
  102   105     1
  102   106     1
  103   105     1
  103   106     1
  104   109     1
  104   110     1
  104   111     1
  105   107     1
  105   108     1
  106   112     1
  106   113     1
  107   109     1
  107   110     1
  107   111     1
  108   114     1
  108   115     1
  109   112     1
  109   113     1
  110   112     1
  110   113     1
  111   116     1
  111   117     1
  111   118     1
  112   114     1
  112   115     1
  113   119     1
  113   120     1
  114   116     1
  114   117     1
  114   118     1
  115   121     1
  115   122     1
  116   119     1
  116   120     1
  117   119     1
  117   120     1
  118   123     1
  118   124     1
  118   125     1
  119   121     1
  119   122     1
  120   126     1
  120   127     1
  121   123     1
  121   124     1
  121   125     1
  122   128     1
  122   129     1
  123   126     1
  123   127     1
  124   126     1
  124   127     1
  125   130     1
  125   131     1
  125   132     1
  126   128     1
  126   129     1
  127   133     1
  127   134     1
  127   135     1
  128   130     1
  128   131     1
  128   132     1
  130   133     1
  130   134     1
  130   135     1
  131   133     1
  131   134     1
  131   135     1

[ angles ] 
; ai	aj	ak	funct	th0	cth	S0	Kub
    2     1     3     5
    2     1     4     5
    2     1     5     5
    3     1     4     5
    3     1     5     5
    4     1     5     5
    1     5     6     5
    1     5     7     5
    1     5    10     5
    6     5     7     5
    6     5    10     5
    7     5    10     5
    5     7     8     5
    5     7     9     5
    8     7     9     5
    5    10    11     5
    5    10    12     5
    5    10    16     5
   11    10    12     5
   11    10    16     5
   12    10    16     5
   14    13    15     5
   14    13    16     5
   14    13    17     5
   15    13    16     5
   15    13    17     5
   16    13    17     5
   10    16    13     5
   13    17    18     5
   17    18    19     5
   17    18    20     5
   17    18    21     5
   19    18    20     5
   19    18    21     5
   20    18    21     5
   18    21    22     5
   18    21    23     5
   18    21    29     5
   22    21    23     5
   22    21    29     5
   23    21    29     5
   21    23    24     5
   23    24    25     5
   23    24    26     5
   25    24    26     5
   24    26    27     5
   24    26    28     5
   24    26    38     5
   27    26    28     5
   27    26    38     5
   28    26    38     5
   21    29    30     5
   21    29    31     5
   21    29    32     5
   30    29    31     5
   30    29    32     5
   31    29    32     5
   29    32    33     5
   32    33    34     5
   32    33    35     5
   34    33    35     5
   33    35    36     5
   33    35    37     5
   33    35    87     5
   36    35    37     5
   36    35    87     5
   37    35    87     5
   26    38    39     5
   26    38    40     5
   26    38    41     5
   39    38    40     5
   39    38    41     5
   40    38    41     5
   38    41    42     5
   38    41    43     5
   42    41    43     5
   41    43    44     5
   41    43    45     5
   44    43    45     5
   43    45    46     5
   43    45    47     5
   43    45    48     5
   46    45    47     5
   46    45    48     5
   47    45    48     5
   45    48    49     5
   45    48    50     5
   49    48    50     5
   48    50    51     5
   48    50    52     5
   51    50    52     5
   50    52    53     5
   50    52    54     5
   50    52    55     5
   53    52    54     5
   53    52    55     5
   54    52    55     5
   52    55    56     5
   52    55    57     5
   56    55    57     5
   55    57    58     5
   55    57    59     5
   58    57    59     5
   57    59    60     5
   57    59    61     5
   57    59    62     5
   60    59    61     5
   60    59    62     5
   61    59    62     5
   59    62    63     5
   59    62    64     5
   63    62    64     5
   62    64    65     5
   62    64    66     5
   65    64    66     5
   64    66    67     5
   64    66    68     5
   64    66    69     5
   67    66    68     5
   67    66    69     5
   68    66    69     5
   66    69    70     5
   66    69    71     5
   70    69    71     5
   69    71    72     5
   69    71    73     5
   72    71    73     5
   71    73    74     5
   71    73    75     5
   71    73    76     5
   74    73    75     5
   74    73    76     5
   75    73    76     5
   73    76    77     5
   73    76    78     5
   77    76    78     5
   76    78    79     5
   76    78    80     5
   79    78    80     5
   78    80    81     5
   78    80    82     5
   78    80    83     5
   81    80    82     5
   81    80    83     5
   82    80    83     5
   80    83    84     5
   80    83    85     5
   80    83    86     5
   84    83    85     5
   84    83    86     5
   85    83    86     5
   35    87    88     5
   35    87    89     5
   35    87    90     5
   88    87    89     5
   88    87    90     5
   89    87    90     5
   87    90    91     5
   87    90    92     5
   91    90    92     5
   90    92    93     5
   90    92    94     5
   93    92    94     5
   92    94    95     5
   92    94    96     5
   92    94    97     5
   95    94    96     5
   95    94    97     5
   96    94    97     5
   94    97    98     5
   94    97    99     5
   98    97    99     5
   97    99   100     5
   97    99   101     5
  100    99   101     5
   99   101   102     5
   99   101   103     5
   99   101   104     5
  102   101   103     5
  102   101   104     5
  103   101   104     5
  101   104   105     5
  101   104   106     5
  105   104   106     5
  104   106   107     5
  104   106   108     5
  107   106   108     5
  106   108   109     5
  106   108   110     5
  106   108   111     5
  109   108   110     5
  109   108   111     5
  110   108   111     5
  108   111   112     5
  108   111   113     5
  112   111   113     5
  111   113   114     5
  111   113   115     5
  114   113   115     5
  113   115   116     5
  113   115   117     5
  113   115   118     5
  116   115   117     5
  116   115   118     5
  117   115   118     5
  115   118   119     5
  115   118   120     5
  119   118   120     5
  118   120   121     5
  118   120   122     5
  121   120   122     5
  120   122   123     5
  120   122   124     5
  120   122   125     5
  123   122   124     5
  123   122   125     5
  124   122   125     5
  122   125   126     5
  122   125   127     5
  126   125   127     5
  125   127   128     5
  125   127   129     5
  128   127   129     5
  127   129   130     5
  127   129   131     5
  127   129   132     5
  130   129   131     5
  130   129   132     5
  131   129   132     5
  129   132   133     5
  129   132   134     5
  129   132   135     5
  133   132   134     5
  133   132   135     5
  134   132   135     5

[ dihedrals ]
; ai	aj	ak	al	funct	phi0	cp	mult
    2     1     5     6     9
    2     1     5     7     9
    2     1     5    10     9
    3     1     5     6     9
    3     1     5     7     9
    3     1     5    10     9
    4     1     5     6     9
    4     1     5     7     9
    4     1     5    10     9
    1     5     7     8     9
    1     5     7     9     9
    6     5     7     8     9
    6     5     7     9     9
    1     5    10    11     9
    1     5    10    12     9
    1     5    10    16     9
    6     5    10    11     9
    6     5    10    12     9
    6     5    10    16     9
    7     5    10    11     9
    7     5    10    12     9
    7     5    10    16     9
    8     7     5    10     9
    9     7     5    10     9
    5    10    16    13     9
   11    10    16    13     9
   12    10    16    13     9
   14    13    17    18     9
   15    13    17    18     9
   16    13    17    18     9
   10    16    13    14     9
   10    16    13    15     9
   10    16    13    17     9
   13    17    18    19     9
   13    17    18    20     9
   13    17    18    21     9
   17    18    21    22     9
   17    18    21    23     9
   17    18    21    29     9
   19    18    21    22     9
   19    18    21    23     9
   19    18    21    29     9
   20    18    21    22     9
   20    18    21    23     9
   20    18    21    29     9
   18    21    23    24     9
   22    21    23    24     9
   18    21    29    30     9
   18    21    29    31     9
   18    21    29    32     9
   22    21    29    30     9
   22    21    29    31     9
   22    21    29    32     9
   23    21    29    30     9
   23    21    29    31     9
   23    21    29    32     9
   24    23    21    29     9
   21    23    24    25     9
   21    23    24    26     9
   23    24    26    27     9
   23    24    26    28     9
   23    24    26    38     9
   25    24    26    27     9
   25    24    26    28     9
   25    24    26    38     9
   24    26    38    39     9
   24    26    38    40     9
   24    26    38    41     9
   27    26    38    39     9
   27    26    38    40     9
   27    26    38    41     9
   28    26    38    39     9
   28    26    38    40     9
   28    26    38    41     9
   21    29    32    33     9
   30    29    32    33     9
   31    29    32    33     9
   29    32    33    34     9
   29    32    33    35     9
   32    33    35    36     9
   32    33    35    37     9
   32    33    35    87     9
   34    33    35    36     9
   34    33    35    37     9
   34    33    35    87     9
   33    35    87    88     9
   33    35    87    89     9
   33    35    87    90     9
   36    35    87    88     9
   36    35    87    89     9
   36    35    87    90     9
   37    35    87    88     9
   37    35    87    89     9
   37    35    87    90     9
   26    38    41    42     9
   26    38    41    43     9
   39    38    41    42     9
   39    38    41    43     9
   40    38    41    42     9
   40    38    41    43     9
   38    41    43    44     9
   38    41    43    45     9
   42    41    43    44     9
   42    41    43    45     9
   41    43    45    46     9
   41    43    45    47     9
   41    43    45    48     9
   44    43    45    46     9
   44    43    45    47     9
   44    43    45    48     9
   43    45    48    49     9
   43    45    48    50     9
   46    45    48    49     9
   46    45    48    50     9
   47    45    48    49     9
   47    45    48    50     9
   45    48    50    51     9
   45    48    50    52     9
   49    48    50    51     9
   49    48    50    52     9
   48    50    52    53     9
   48    50    52    54     9
   48    50    52    55     9
   51    50    52    53     9
   51    50    52    54     9
   51    50    52    55     9
   50    52    55    56     9
   50    52    55    57     9
   53    52    55    56     9
   53    52    55    57     9
   54    52    55    56     9
   54    52    55    57     9
   52    55    57    58     9
   52    55    57    59     9
   56    55    57    58     9
   56    55    57    59     9
   55    57    59    60     9
   55    57    59    61     9
   55    57    59    62     9
   58    57    59    60     9
   58    57    59    61     9
   58    57    59    62     9
   57    59    62    63     9
   57    59    62    64     9
   60    59    62    63     9
   60    59    62    64     9
   61    59    62    63     9
   61    59    62    64     9
   59    62    64    65     9
   59    62    64    66     9
   63    62    64    65     9
   63    62    64    66     9
   62    64    66    67     9
   62    64    66    68     9
   62    64    66    69     9
   65    64    66    67     9
   65    64    66    68     9
   65    64    66    69     9
   64    66    69    70     9
   64    66    69    71     9
   67    66    69    70     9
   67    66    69    71     9
   68    66    69    70     9
   68    66    69    71     9
   66    69    71    72     9
   66    69    71    73     9
   70    69    71    72     9
   70    69    71    73     9
   69    71    73    74     9
   69    71    73    75     9
   69    71    73    76     9
   72    71    73    74     9
   72    71    73    75     9
   72    71    73    76     9
   71    73    76    77     9
   71    73    76    78     9
   74    73    76    77     9
   74    73    76    78     9
   75    73    76    77     9
   75    73    76    78     9
   73    76    78    79     9
   73    76    78    80     9
   77    76    78    79     9
   77    76    78    80     9
   76    78    80    81     9
   76    78    80    82     9
   76    78    80    83     9
   79    78    80    81     9
   79    78    80    82     9
   79    78    80    83     9
   78    80    83    84     9
   78    80    83    85     9
   78    80    83    86     9
   81    80    83    84     9
   81    80    83    85     9
   81    80    83    86     9
   82    80    83    84     9
   82    80    83    85     9
   82    80    83    86     9
   35    87    90    91     9
   35    87    90    92     9
   88    87    90    91     9
   88    87    90    92     9
   89    87    90    91     9
   89    87    90    92     9
   87    90    92    93     9
   87    90    92    94     9
   91    90    92    93     9
   91    90    92    94     9
   90    92    94    95     9
   90    92    94    96     9
   90    92    94    97     9
   93    92    94    95     9
   93    92    94    96     9
   93    92    94    97     9
   92    94    97    98     9
   92    94    97    99     9
   95    94    97    98     9
   95    94    97    99     9
   96    94    97    98     9
   96    94    97    99     9
   94    97    99   100     9
   94    97    99   101     9
   98    97    99   100     9
   98    97    99   101     9
   97    99   101   102     9
   97    99   101   103     9
   97    99   101   104     9
  100    99   101   102     9
  100    99   101   103     9
  100    99   101   104     9
   99   101   104   105     9
   99   101   104   106     9
  102   101   104   105     9
  102   101   104   106     9
  103   101   104   105     9
  103   101   104   106     9
  101   104   106   107     9
  101   104   106   108     9
  105   104   106   107     9
  105   104   106   108     9
  104   106   108   109     9
  104   106   108   110     9
  104   106   108   111     9
  107   106   108   109     9
  107   106   108   110     9
  107   106   108   111     9
  106   108   111   112     9
  106   108   111   113     9
  109   108   111   112     9
  109   108   111   113     9
  110   108   111   112     9
  110   108   111   113     9
  108   111   113   114     9
  108   111   113   115     9
  112   111   113   114     9
  112   111   113   115     9
  111   113   115   116     9
  111   113   115   117     9
  111   113   115   118     9
  114   113   115   116     9
  114   113   115   117     9
  114   113   115   118     9
  113   115   118   119     9
  113   115   118   120     9
  116   115   118   119     9
  116   115   118   120     9
  117   115   118   119     9
  117   115   118   120     9
  115   118   120   121     9
  115   118   120   122     9
  119   118   120   121     9
  119   118   120   122     9
  118   120   122   123     9
  118   120   122   124     9
  118   120   122   125     9
  121   120   122   123     9
  121   120   122   124     9
  121   120   122   125     9
  120   122   125   126     9
  120   122   125   127     9
  123   122   125   126     9
  123   122   125   127     9
  124   122   125   126     9
  124   122   125   127     9
  122   125   127   128     9
  122   125   127   129     9
  126   125   127   128     9
  126   125   127   129     9
  125   127   129   130     9
  125   127   129   131     9
  125   127   129   132     9
  128   127   129   130     9
  128   127   129   131     9
  128   127   129   132     9
  127   129   132   133     9
  127   129   132   134     9
  127   129   132   135     9
  130   129   132   133     9
  130   129   132   134     9
  130   129   132   135     9
  131   129   132   133     9
  131   129   132   134     9
  131   129   132   135     9

[ dihedrals ]
; ai	aj	ak	al	funct	q0	cq
   24    23    26    25     2
   33    32    35    34     2

#ifdef POSRES
[ position_restraints ]
   13     1     0.0             0.0            POSRES_FC_LIPID
#endif

#ifdef DIHRES
[ dihedral_restraints ]
    1     7     5    10     1   -120.0      2.5       DIHRES_FC
   18    29    21    23     1   -120.0      2.5       DIHRES_FC
   38    41    43    45     1      0.0      0.0       DIHRES_FC
   45    48    50    52     1      0.0      0.0       DIHRES_FC
   52    55    57    59     1      0.0      0.0       DIHRES_FC
   59    62    64    66     1      0.0      0.0       DIHRES_FC
   66    69    71    73     1      0.0      0.0       DIHRES_FC
   73    76    78    80     1      0.0      0.0       DIHRES_FC
   87    90    92    94     1      0.0      0.0       DIHRES_FC
   94    97    99   101     1      0.0      0.0       DIHRES_FC
  101   104   106   108     1      0.0      0.0       DIHRES_FC
  108   111   113   115     1      0.0      0.0       DIHRES_FC
  115   118   120   122     1      0.0      0.0       DIHRES_FC
  122   125   127   129     1      0.0      0.0       DIHRES_FC
#endif
