;;
;; Generated by CHARMM-GUI FF-Converter
;;
;; Correspondance:
;; jul316@lehigh.edu or wonpil@lehigh.edu
;;
;; GROMACS topology file for DMKC1H
;;


[ moleculetype ]
; name	nrexcl
DMKC1H	     3

[ atoms ]
; nr	type	resnr	residu	atom	cgnr	charge	mass
     1      NG3P1    155   DMKC1H     N1      1    -0.565000    14.0070   ; qtot -0.565
     2       HGP2    155   DMKC1H    HN4      2     0.320000     1.0080   ; qtot -0.245
     3      CG334    155   DMKC1H    CN1      3     0.145000    12.0110   ; qtot -0.100
     4       HGA3    155   DMKC1H   HN11      4     0.090000     1.0080   ; qtot -0.010
     5       HGA3    155   DMKC1H   HN12      5     0.090000     1.0080   ; qtot  0.080
     6       HGA3    155   DMKC1H   HN13      6     0.090000     1.0080   ; qtot  0.170
     7      CG334    155   DMKC1H    CN2      7     0.145000    12.0110   ; qtot  0.315
     8       HGA3    155   DMKC1H   HN21      8     0.090000     1.0080   ; qtot  0.405
     9       HGA3    155   DMKC1H   HN22      9     0.090000     1.0080   ; qtot  0.495
    10       HGA3    155   DMKC1H   HN23     10     0.090000     1.0080   ; qtot  0.585
    11      CG324    155   DMKC1H     C1     11     0.235000    12.0110   ; qtot  0.820
    12       HGA2    155   DMKC1H    H11     12     0.090000     1.0080   ; qtot  0.910
    13       HGA2    155   DMKC1H    H12     13     0.090000     1.0080   ; qtot  1.000
    14     OG3C51    155   DMKC1H     O1     14    -0.400000    15.9994   ; qtot  0.600
    15     OG3C51    155   DMKC1H     O2     15    -0.400000    15.9994   ; qtot  0.200
    16     CG3C51    155   DMKC1H     C2     16     0.050000    12.0110   ; qtot  0.250
    17       HGA1    155   DMKC1H    H21     17     0.090000     1.0080   ; qtot  0.340
    18     CG3C52    155   DMKC1H     C3     18     0.050000    12.0110   ; qtot  0.390
    19       HGA2    155   DMKC1H    H31     19     0.090000     1.0080   ; qtot  0.480
    20       HGA2    155   DMKC1H    H32     20     0.090000     1.0080   ; qtot  0.570
    21     CG3C50    155   DMKC1H     C4     21     0.430000    12.0110   ; qtot  1.000
    22       CTL2    155   DMKC1H    C11     22    -0.180000    12.0110   ; qtot  0.820
    23       HAL2    155   DMKC1H   H11R     23     0.090000     1.0080   ; qtot  0.910
    24       HAL2    155   DMKC1H   H11S     24     0.090000     1.0080   ; qtot  1.000
    25       CTL2    155   DMKC1H    C12     25    -0.180000    12.0110   ; qtot  0.820
    26       HAL2    155   DMKC1H   H12R     26     0.090000     1.0080   ; qtot  0.910
    27       HAL2    155   DMKC1H   H12S     27     0.090000     1.0080   ; qtot  1.000
    28       CTL2    155   DMKC1H    C13     28    -0.180000    12.0110   ; qtot  0.820
    29       HAL2    155   DMKC1H   H13R     29     0.090000     1.0080   ; qtot  0.910
    30       HAL2    155   DMKC1H   H13S     30     0.090000     1.0080   ; qtot  1.000
    31       CTL2    155   DMKC1H    C14     31    -0.180000    12.0110   ; qtot  0.820
    32       HAL2    155   DMKC1H   H14R     32     0.090000     1.0080   ; qtot  0.910
    33       HAL2    155   DMKC1H   H14S     33     0.090000     1.0080   ; qtot  1.000
    34       CTL2    155   DMKC1H    C15     34    -0.180000    12.0110   ; qtot  0.820
    35       HAL2    155   DMKC1H   H15R     35     0.090000     1.0080   ; qtot  0.910
    36       HAL2    155   DMKC1H   H15S     36     0.090000     1.0080   ; qtot  1.000
    37       CTL2    155   DMKC1H    C16     37    -0.180000    12.0110   ; qtot  0.820
    38       HAL2    155   DMKC1H   H16R     38     0.090000     1.0080   ; qtot  0.910
    39       HAL2    155   DMKC1H   H16S     39     0.090000     1.0080   ; qtot  1.000
    40       CTL2    155   DMKC1H    C17     40    -0.180000    12.0110   ; qtot  0.820
    41       HAL2    155   DMKC1H   H17R     41     0.090000     1.0080   ; qtot  0.910
    42       HAL2    155   DMKC1H   H17S     42     0.090000     1.0080   ; qtot  1.000
    43       CTL2    155   DMKC1H    C18     43    -0.180000    12.0110   ; qtot  0.820
    44       HAL2    155   DMKC1H   H18R     44     0.090000     1.0080   ; qtot  0.910
    45       HAL2    155   DMKC1H   H18S     45     0.090000     1.0080   ; qtot  1.000
    46       CTL2    155   DMKC1H    C19     46    -0.180000    12.0110   ; qtot  0.820
    47       HAL2    155   DMKC1H   H19R     47     0.090000     1.0080   ; qtot  0.910
    48       HAL2    155   DMKC1H   H19S     48     0.090000     1.0080   ; qtot  1.000
    49       CTL2    155   DMKC1H   C110     49    -0.180000    12.0110   ; qtot  0.820
    50       HAL2    155   DMKC1H  H110R     50     0.090000     1.0080   ; qtot  0.910
    51       HAL2    155   DMKC1H  H110S     51     0.090000     1.0080   ; qtot  1.000
    52       CTL2    155   DMKC1H   C111     52    -0.180000    12.0110   ; qtot  0.820
    53       HAL2    155   DMKC1H  H111R     53     0.090000     1.0080   ; qtot  0.910
    54       HAL2    155   DMKC1H  H111S     54     0.090000     1.0080   ; qtot  1.000
    55       CTL2    155   DMKC1H   C112     55    -0.180000    12.0110   ; qtot  0.820
    56       HAL2    155   DMKC1H  H112R     56     0.090000     1.0080   ; qtot  0.910
    57       HAL2    155   DMKC1H  H112S     57     0.090000     1.0080   ; qtot  1.000
    58       CTL2    155   DMKC1H   C113     58    -0.180000    12.0110   ; qtot  0.820
    59       HAL2    155   DMKC1H  H113R     59     0.090000     1.0080   ; qtot  0.910
    60       HAL2    155   DMKC1H  H113S     60     0.090000     1.0080   ; qtot  1.000
    61       CTL3    155   DMKC1H   C114     61    -0.270000    12.0110   ; qtot  0.730
    62       HAL3    155   DMKC1H  H114R     62     0.090000     1.0080   ; qtot  0.820
    63       HAL3    155   DMKC1H  H114S     63     0.090000     1.0080   ; qtot  0.910
    64       HAL3    155   DMKC1H  H114T     64     0.090000     1.0080   ; qtot  1.000
    65       CTL2    155   DMKC1H    C21     65    -0.180000    12.0110   ; qtot  0.820
    66       HAL2    155   DMKC1H   H21R     66     0.090000     1.0080   ; qtot  0.910
    67       HAL2    155   DMKC1H   H21S     67     0.090000     1.0080   ; qtot  1.000
    68       CTL2    155   DMKC1H    C22     68    -0.180000    12.0110   ; qtot  0.820
    69       HAL2    155   DMKC1H   H22R     69     0.090000     1.0080   ; qtot  0.910
    70       HAL2    155   DMKC1H   H22S     70     0.090000     1.0080   ; qtot  1.000
    71       CTL2    155   DMKC1H    C23     71    -0.180000    12.0110   ; qtot  0.820
    72       HAL2    155   DMKC1H   H23R     72     0.090000     1.0080   ; qtot  0.910
    73       HAL2    155   DMKC1H   H23S     73     0.090000     1.0080   ; qtot  1.000
    74       CTL2    155   DMKC1H    C24     74    -0.180000    12.0110   ; qtot  0.820
    75       HAL2    155   DMKC1H   H24R     75     0.090000     1.0080   ; qtot  0.910
    76       HAL2    155   DMKC1H   H24S     76     0.090000     1.0080   ; qtot  1.000
    77       CTL2    155   DMKC1H    C25     77    -0.180000    12.0110   ; qtot  0.820
    78       HAL2    155   DMKC1H   H25R     78     0.090000     1.0080   ; qtot  0.910
    79       HAL2    155   DMKC1H   H25S     79     0.090000     1.0080   ; qtot  1.000
    80       CTL2    155   DMKC1H    C26     80    -0.180000    12.0110   ; qtot  0.820
    81       HAL2    155   DMKC1H   H26R     81     0.090000     1.0080   ; qtot  0.910
    82       HAL2    155   DMKC1H   H26S     82     0.090000     1.0080   ; qtot  1.000
    83       CTL2    155   DMKC1H    C27     83    -0.180000    12.0110   ; qtot  0.820
    84       HAL2    155   DMKC1H   H27R     84     0.090000     1.0080   ; qtot  0.910
    85       HAL2    155   DMKC1H   H27S     85     0.090000     1.0080   ; qtot  1.000
    86       CTL2    155   DMKC1H    C28     86    -0.180000    12.0110   ; qtot  0.820
    87       HAL2    155   DMKC1H   H28R     87     0.090000     1.0080   ; qtot  0.910
    88       HAL2    155   DMKC1H   H28S     88     0.090000     1.0080   ; qtot  1.000
    89       CTL2    155   DMKC1H    C29     89    -0.180000    12.0110   ; qtot  0.820
    90       HAL2    155   DMKC1H   H29R     90     0.090000     1.0080   ; qtot  0.910
    91       HAL2    155   DMKC1H   H29S     91     0.090000     1.0080   ; qtot  1.000
    92       CTL2    155   DMKC1H   C210     92    -0.180000    12.0110   ; qtot  0.820
    93       HAL2    155   DMKC1H  H210R     93     0.090000     1.0080   ; qtot  0.910
    94       HAL2    155   DMKC1H  H210S     94     0.090000     1.0080   ; qtot  1.000
    95       CTL2    155   DMKC1H   C211     95    -0.180000    12.0110   ; qtot  0.820
    96       HAL2    155   DMKC1H  H211R     96     0.090000     1.0080   ; qtot  0.910
    97       HAL2    155   DMKC1H  H211S     97     0.090000     1.0080   ; qtot  1.000
    98       CTL2    155   DMKC1H   C212     98    -0.180000    12.0110   ; qtot  0.820
    99       HAL2    155   DMKC1H  H212R     99     0.090000     1.0080   ; qtot  0.910
   100       HAL2    155   DMKC1H  H212S    100     0.090000     1.0080   ; qtot  1.000
   101       CTL2    155   DMKC1H   C213    101    -0.180000    12.0110   ; qtot  0.820
   102       HAL2    155   DMKC1H  H213R    102     0.090000     1.0080   ; qtot  0.910
   103       HAL2    155   DMKC1H  H213S    103     0.090000     1.0080   ; qtot  1.000
   104       CTL3    155   DMKC1H   C214    104    -0.270000    12.0110   ; qtot  0.730
   105       HAL3    155   DMKC1H  H214R    105     0.090000     1.0080   ; qtot  0.820
   106       HAL3    155   DMKC1H  H214S    106     0.090000     1.0080   ; qtot  0.910
   107       HAL3    155   DMKC1H  H214T    107     0.090000     1.0080   ; qtot  1.000

[ bonds ]
; ai	aj	funct	b0	Kb
    1     2     1
    1     3     1
    1     7     1
    1    11     1
    3     4     1
    3     5     1
    3     6     1
    7     8     1
    7     9     1
    7    10     1
   11    12     1
   11    13     1
   11    16     1
   16    14     1
   14    21     1
   15    18     1
   21    15     1
   16    17     1
   16    18     1
   18    19     1
   18    20     1
   21    22     1
   21    65     1
   22    23     1
   22    24     1
   22    25     1
   25    26     1
   25    27     1
   25    28     1
   28    29     1
   28    30     1
   28    31     1
   31    32     1
   31    33     1
   31    34     1
   34    35     1
   34    36     1
   34    37     1
   37    38     1
   37    39     1
   37    40     1
   40    41     1
   40    42     1
   40    43     1
   43    44     1
   43    45     1
   43    46     1
   46    47     1
   46    48     1
   46    49     1
   49    50     1
   49    51     1
   49    52     1
   52    53     1
   52    54     1
   52    55     1
   55    56     1
   55    57     1
   55    58     1
   58    59     1
   58    60     1
   58    61     1
   61    62     1
   61    63     1
   61    64     1
   65    66     1
   65    67     1
   65    68     1
   68    69     1
   68    70     1
   68    71     1
   71    72     1
   71    73     1
   71    74     1
   74    75     1
   74    76     1
   74    77     1
   77    78     1
   77    79     1
   77    80     1
   80    81     1
   80    82     1
   80    83     1
   83    84     1
   83    85     1
   83    86     1
   86    87     1
   86    88     1
   86    89     1
   89    90     1
   89    91     1
   89    92     1
   92    93     1
   92    94     1
   92    95     1
   95    96     1
   95    97     1
   95    98     1
   98    99     1
   98   100     1
   98   101     1
  101   102     1
  101   103     1
  101   104     1
  104   105     1
  104   106     1
  104   107     1

[ pairs ]
; ai	aj	funct	c6	c12 or
; ai	aj	funct	fudgeQQ	q1	q2	c6	c12
    1    14     1
    1    17     1
    1    18     1
    2     4     1
    2     5     1
    2     6     1
    2     8     1
    2     9     1
    2    10     1
    2    12     1
    2    13     1
    2    16     1
    3     8     1
    3     9     1
    3    10     1
    3    12     1
    3    13     1
    3    16     1
    4     7     1
    4    11     1
    5     7     1
    5    11     1
    6     7     1
    6    11     1
    7    12     1
    7    13     1
    7    16     1
    8    11     1
    9    11     1
   10    11     1
   11    15     1
   11    19     1
   11    20     1
   11    21     1
   12    14     1
   12    17     1
   12    18     1
   13    14     1
   13    17     1
   13    18     1
   14    19     1
   14    20     1
   14    23     1
   14    24     1
   14    25     1
   14    66     1
   14    67     1
   14    68     1
   15    17     1
   15    23     1
   15    24     1
   15    25     1
   15    66     1
   15    67     1
   15    68     1
   16    22     1
   16    65     1
   17    19     1
   17    20     1
   17    21     1
   18    22     1
   18    65     1
   19    21     1
   20    21     1
   21    26     1
   21    27     1
   21    28     1
   21    69     1
   21    70     1
   21    71     1
   22    29     1
   22    30     1
   22    31     1
   22    66     1
   22    67     1
   22    68     1
   23    26     1
   23    27     1
   23    28     1
   23    65     1
   24    26     1
   24    27     1
   24    28     1
   24    65     1
   25    32     1
   25    33     1
   25    34     1
   25    65     1
   26    29     1
   26    30     1
   26    31     1
   27    29     1
   27    30     1
   27    31     1
   28    35     1
   28    36     1
   28    37     1
   29    32     1
   29    33     1
   29    34     1
   30    32     1
   30    33     1
   30    34     1
   31    38     1
   31    39     1
   31    40     1
   32    35     1
   32    36     1
   32    37     1
   33    35     1
   33    36     1
   33    37     1
   34    41     1
   34    42     1
   34    43     1
   35    38     1
   35    39     1
   35    40     1
   36    38     1
   36    39     1
   36    40     1
   37    44     1
   37    45     1
   37    46     1
   38    41     1
   38    42     1
   38    43     1
   39    41     1
   39    42     1
   39    43     1
   40    47     1
   40    48     1
   40    49     1
   41    44     1
   41    45     1
   41    46     1
   42    44     1
   42    45     1
   42    46     1
   43    50     1
   43    51     1
   43    52     1
   44    47     1
   44    48     1
   44    49     1
   45    47     1
   45    48     1
   45    49     1
   46    53     1
   46    54     1
   46    55     1
   47    50     1
   47    51     1
   47    52     1
   48    50     1
   48    51     1
   48    52     1
   49    56     1
   49    57     1
   49    58     1
   50    53     1
   50    54     1
   50    55     1
   51    53     1
   51    54     1
   51    55     1
   52    59     1
   52    60     1
   52    61     1
   53    56     1
   53    57     1
   53    58     1
   54    56     1
   54    57     1
   54    58     1
   55    62     1
   55    63     1
   55    64     1
   56    59     1
   56    60     1
   56    61     1
   57    59     1
   57    60     1
   57    61     1
   59    62     1
   59    63     1
   59    64     1
   60    62     1
   60    63     1
   60    64     1
   65    72     1
   65    73     1
   65    74     1
   66    69     1
   66    70     1
   66    71     1
   67    69     1
   67    70     1
   67    71     1
   68    75     1
   68    76     1
   68    77     1
   69    72     1
   69    73     1
   69    74     1
   70    72     1
   70    73     1
   70    74     1
   71    78     1
   71    79     1
   71    80     1
   72    75     1
   72    76     1
   72    77     1
   73    75     1
   73    76     1
   73    77     1
   74    81     1
   74    82     1
   74    83     1
   75    78     1
   75    79     1
   75    80     1
   76    78     1
   76    79     1
   76    80     1
   77    84     1
   77    85     1
   77    86     1
   78    81     1
   78    82     1
   78    83     1
   79    81     1
   79    82     1
   79    83     1
   80    87     1
   80    88     1
   80    89     1
   81    84     1
   81    85     1
   81    86     1
   82    84     1
   82    85     1
   82    86     1
   83    90     1
   83    91     1
   83    92     1
   84    87     1
   84    88     1
   84    89     1
   85    87     1
   85    88     1
   85    89     1
   86    93     1
   86    94     1
   86    95     1
   87    90     1
   87    91     1
   87    92     1
   88    90     1
   88    91     1
   88    92     1
   89    96     1
   89    97     1
   89    98     1
   90    93     1
   90    94     1
   90    95     1
   91    93     1
   91    94     1
   91    95     1
   92    99     1
   92   100     1
   92   101     1
   93    96     1
   93    97     1
   93    98     1
   94    96     1
   94    97     1
   94    98     1
   95   102     1
   95   103     1
   95   104     1
   96    99     1
   96   100     1
   96   101     1
   97    99     1
   97   100     1
   97   101     1
   98   105     1
   98   106     1
   98   107     1
   99   102     1
   99   103     1
   99   104     1
  100   102     1
  100   103     1
  100   104     1
  102   105     1
  102   106     1
  102   107     1
  103   105     1
  103   106     1
  103   107     1

[ angles ] 
; ai	aj	ak	funct	th0	cth	S0	Kub
    2     1     3     5
    2     1     7     5
    2     1    11     5
    3     1     7     5
    3     1    11     5
    7     1    11     5
    1     3     4     5
    1     3     5     5
    1     3     6     5
    4     3     5     5
    4     3     6     5
    5     3     6     5
    1     7     8     5
    1     7     9     5
    1     7    10     5
    8     7     9     5
    8     7    10     5
    9     7    10     5
    1    11    12     5
    1    11    13     5
    1    11    16     5
   12    11    13     5
   12    11    16     5
   13    11    16     5
   16    14    21     5
   18    15    21     5
   11    16    14     5
   11    16    17     5
   11    16    18     5
   14    16    17     5
   14    16    18     5
   17    16    18     5
   15    18    16     5
   15    18    19     5
   15    18    20     5
   16    18    19     5
   16    18    20     5
   19    18    20     5
   14    21    15     5
   14    21    22     5
   14    21    65     5
   15    21    22     5
   15    21    65     5
   22    21    65     5
   21    22    23     5
   21    22    24     5
   21    22    25     5
   23    22    24     5
   23    22    25     5
   24    22    25     5
   22    25    26     5
   22    25    27     5
   22    25    28     5
   26    25    27     5
   26    25    28     5
   27    25    28     5
   25    28    29     5
   25    28    30     5
   25    28    31     5
   29    28    30     5
   29    28    31     5
   30    28    31     5
   28    31    32     5
   28    31    33     5
   28    31    34     5
   32    31    33     5
   32    31    34     5
   33    31    34     5
   31    34    35     5
   31    34    36     5
   31    34    37     5
   35    34    36     5
   35    34    37     5
   36    34    37     5
   34    37    38     5
   34    37    39     5
   34    37    40     5
   38    37    39     5
   38    37    40     5
   39    37    40     5
   37    40    41     5
   37    40    42     5
   37    40    43     5
   41    40    42     5
   41    40    43     5
   42    40    43     5
   40    43    44     5
   40    43    45     5
   40    43    46     5
   44    43    45     5
   44    43    46     5
   45    43    46     5
   43    46    47     5
   43    46    48     5
   43    46    49     5
   47    46    48     5
   47    46    49     5
   48    46    49     5
   46    49    50     5
   46    49    51     5
   46    49    52     5
   50    49    51     5
   50    49    52     5
   51    49    52     5
   49    52    53     5
   49    52    54     5
   49    52    55     5
   53    52    54     5
   53    52    55     5
   54    52    55     5
   52    55    56     5
   52    55    57     5
   52    55    58     5
   56    55    57     5
   56    55    58     5
   57    55    58     5
   55    58    59     5
   55    58    60     5
   55    58    61     5
   59    58    60     5
   59    58    61     5
   60    58    61     5
   58    61    62     5
   58    61    63     5
   58    61    64     5
   62    61    63     5
   62    61    64     5
   63    61    64     5
   21    65    66     5
   21    65    67     5
   21    65    68     5
   66    65    67     5
   66    65    68     5
   67    65    68     5
   65    68    69     5
   65    68    70     5
   65    68    71     5
   69    68    70     5
   69    68    71     5
   70    68    71     5
   68    71    72     5
   68    71    73     5
   68    71    74     5
   72    71    73     5
   72    71    74     5
   73    71    74     5
   71    74    75     5
   71    74    76     5
   71    74    77     5
   75    74    76     5
   75    74    77     5
   76    74    77     5
   74    77    78     5
   74    77    79     5
   74    77    80     5
   78    77    79     5
   78    77    80     5
   79    77    80     5
   77    80    81     5
   77    80    82     5
   77    80    83     5
   81    80    82     5
   81    80    83     5
   82    80    83     5
   80    83    84     5
   80    83    85     5
   80    83    86     5
   84    83    85     5
   84    83    86     5
   85    83    86     5
   83    86    87     5
   83    86    88     5
   83    86    89     5
   87    86    88     5
   87    86    89     5
   88    86    89     5
   86    89    90     5
   86    89    91     5
   86    89    92     5
   90    89    91     5
   90    89    92     5
   91    89    92     5
   89    92    93     5
   89    92    94     5
   89    92    95     5
   93    92    94     5
   93    92    95     5
   94    92    95     5
   92    95    96     5
   92    95    97     5
   92    95    98     5
   96    95    97     5
   96    95    98     5
   97    95    98     5
   95    98    99     5
   95    98   100     5
   95    98   101     5
   99    98   100     5
   99    98   101     5
  100    98   101     5
   98   101   102     5
   98   101   103     5
   98   101   104     5
  102   101   103     5
  102   101   104     5
  103   101   104     5
  101   104   105     5
  101   104   106     5
  101   104   107     5
  105   104   106     5
  105   104   107     5
  106   104   107     5

[ dihedrals ]
; ai	aj	ak	al	funct	phi0	cp	mult
    2     1     3     4     9
    2     1     3     5     9
    2     1     3     6     9
    2     1     7     8     9
    2     1     7     9     9
    2     1     7    10     9
    3     1     7     8     9
    3     1     7     9     9
    3     1     7    10     9
    2     1    11    12     9
    2     1    11    13     9
    2     1    11    16     9
    3     1    11    12     9
    3     1    11    13     9
    3     1    11    16     9
    7     1    11    12     9
    7     1    11    13     9
    7     1    11    16     9
    4     3     1     7     9
    4     3     1    11     9
    5     3     1     7     9
    5     3     1    11     9
    6     3     1     7     9
    6     3     1    11     9
    8     7     1    11     9
    9     7     1    11     9
   10     7     1    11     9
    1    11    16    14     9
    1    11    16    17     9
    1    11    16    18     9
   12    11    16    14     9
   12    11    16    17     9
   12    11    16    18     9
   13    11    16    14     9
   13    11    16    17     9
   13    11    16    18     9
   16    14    21    22     9
   16    14    21    65     9
   18    15    21    22     9
   18    15    21    65     9
   11    16    14    21     9
   17    16    14    21     9
   18    16    14    21     9
   11    16    18    15     9
   11    16    18    19     9
   11    16    18    20     9
   14    16    18    15     9
   14    16    18    19     9
   14    16    18    20     9
   17    16    18    19     9
   17    16    18    20     9
   16    18    15    21     9
   19    18    15    21     9
   20    18    15    21     9
   15    18    16    17     9
   15    21    14    16     9
   14    21    15    18     9
   14    21    22    23     9
   14    21    22    24     9
   14    21    22    25     9
   15    21    22    23     9
   15    21    22    24     9
   15    21    22    25     9
   14    21    65    66     9
   14    21    65    67     9
   14    21    65    68     9
   15    21    65    66     9
   15    21    65    67     9
   15    21    65    68     9
   22    21    65    66     9
   22    21    65    67     9
   22    21    65    68     9
   23    22    21    65     9
   24    22    21    65     9
   25    22    21    65     9
   21    22    25    26     9
   21    22    25    27     9
   21    22    25    28     9
   23    22    25    26     9
   23    22    25    27     9
   23    22    25    28     9
   24    22    25    26     9
   24    22    25    27     9
   24    22    25    28     9
   22    25    28    29     9
   22    25    28    30     9
   22    25    28    31     9
   26    25    28    29     9
   26    25    28    30     9
   26    25    28    31     9
   27    25    28    29     9
   27    25    28    30     9
   27    25    28    31     9
   25    28    31    32     9
   25    28    31    33     9
   25    28    31    34     9
   29    28    31    32     9
   29    28    31    33     9
   29    28    31    34     9
   30    28    31    32     9
   30    28    31    33     9
   30    28    31    34     9
   28    31    34    35     9
   28    31    34    36     9
   28    31    34    37     9
   32    31    34    35     9
   32    31    34    36     9
   32    31    34    37     9
   33    31    34    35     9
   33    31    34    36     9
   33    31    34    37     9
   31    34    37    38     9
   31    34    37    39     9
   31    34    37    40     9
   35    34    37    38     9
   35    34    37    39     9
   35    34    37    40     9
   36    34    37    38     9
   36    34    37    39     9
   36    34    37    40     9
   34    37    40    41     9
   34    37    40    42     9
   34    37    40    43     9
   38    37    40    41     9
   38    37    40    42     9
   38    37    40    43     9
   39    37    40    41     9
   39    37    40    42     9
   39    37    40    43     9
   37    40    43    44     9
   37    40    43    45     9
   37    40    43    46     9
   41    40    43    44     9
   41    40    43    45     9
   41    40    43    46     9
   42    40    43    44     9
   42    40    43    45     9
   42    40    43    46     9
   40    43    46    47     9
   40    43    46    48     9
   40    43    46    49     9
   44    43    46    47     9
   44    43    46    48     9
   44    43    46    49     9
   45    43    46    47     9
   45    43    46    48     9
   45    43    46    49     9
   43    46    49    50     9
   43    46    49    51     9
   43    46    49    52     9
   47    46    49    50     9
   47    46    49    51     9
   47    46    49    52     9
   48    46    49    50     9
   48    46    49    51     9
   48    46    49    52     9
   46    49    52    53     9
   46    49    52    54     9
   46    49    52    55     9
   50    49    52    53     9
   50    49    52    54     9
   50    49    52    55     9
   51    49    52    53     9
   51    49    52    54     9
   51    49    52    55     9
   49    52    55    56     9
   49    52    55    57     9
   49    52    55    58     9
   53    52    55    56     9
   53    52    55    57     9
   53    52    55    58     9
   54    52    55    56     9
   54    52    55    57     9
   54    52    55    58     9
   52    55    58    59     9
   52    55    58    60     9
   52    55    58    61     9
   56    55    58    59     9
   56    55    58    60     9
   56    55    58    61     9
   57    55    58    59     9
   57    55    58    60     9
   57    55    58    61     9
   55    58    61    62     9
   55    58    61    63     9
   55    58    61    64     9
   59    58    61    62     9
   59    58    61    63     9
   59    58    61    64     9
   60    58    61    62     9
   60    58    61    63     9
   60    58    61    64     9
   21    65    68    69     9
   21    65    68    70     9
   21    65    68    71     9
   66    65    68    69     9
   66    65    68    70     9
   66    65    68    71     9
   67    65    68    69     9
   67    65    68    70     9
   67    65    68    71     9
   65    68    71    72     9
   65    68    71    73     9
   65    68    71    74     9
   69    68    71    72     9
   69    68    71    73     9
   69    68    71    74     9
   70    68    71    72     9
   70    68    71    73     9
   70    68    71    74     9
   68    71    74    75     9
   68    71    74    76     9
   68    71    74    77     9
   72    71    74    75     9
   72    71    74    76     9
   72    71    74    77     9
   73    71    74    75     9
   73    71    74    76     9
   73    71    74    77     9
   71    74    77    78     9
   71    74    77    79     9
   71    74    77    80     9
   75    74    77    78     9
   75    74    77    79     9
   75    74    77    80     9
   76    74    77    78     9
   76    74    77    79     9
   76    74    77    80     9
   74    77    80    81     9
   74    77    80    82     9
   74    77    80    83     9
   78    77    80    81     9
   78    77    80    82     9
   78    77    80    83     9
   79    77    80    81     9
   79    77    80    82     9
   79    77    80    83     9
   77    80    83    84     9
   77    80    83    85     9
   77    80    83    86     9
   81    80    83    84     9
   81    80    83    85     9
   81    80    83    86     9
   82    80    83    84     9
   82    80    83    85     9
   82    80    83    86     9
   80    83    86    87     9
   80    83    86    88     9
   80    83    86    89     9
   84    83    86    87     9
   84    83    86    88     9
   84    83    86    89     9
   85    83    86    87     9
   85    83    86    88     9
   85    83    86    89     9
   83    86    89    90     9
   83    86    89    91     9
   83    86    89    92     9
   87    86    89    90     9
   87    86    89    91     9
   87    86    89    92     9
   88    86    89    90     9
   88    86    89    91     9
   88    86    89    92     9
   86    89    92    93     9
   86    89    92    94     9
   86    89    92    95     9
   90    89    92    93     9
   90    89    92    94     9
   90    89    92    95     9
   91    89    92    93     9
   91    89    92    94     9
   91    89    92    95     9
   89    92    95    96     9
   89    92    95    97     9
   89    92    95    98     9
   93    92    95    96     9
   93    92    95    97     9
   93    92    95    98     9
   94    92    95    96     9
   94    92    95    97     9
   94    92    95    98     9
   92    95    98    99     9
   92    95    98   100     9
   92    95    98   101     9
   96    95    98    99     9
   96    95    98   100     9
   96    95    98   101     9
   97    95    98    99     9
   97    95    98   100     9
   97    95    98   101     9
   95    98   101   102     9
   95    98   101   103     9
   95    98   101   104     9
   99    98   101   102     9
   99    98   101   103     9
   99    98   101   104     9
  100    98   101   102     9
  100    98   101   103     9
  100    98   101   104     9
   98   101   104   105     9
   98   101   104   106     9
   98   101   104   107     9
  102   101   104   105     9
  102   101   104   106     9
  102   101   104   107     9
  103   101   104   105     9
  103   101   104   106     9
  103   101   104   107     9

#ifdef POSRES
[ position_restraints ]
    1     1     0.0             0.0            POSRES_FC_LIPID
#endif

#ifdef DIHRES
[ dihedral_restraints ]
#endif
