;;
;; Generated by CHARMM-GUI FF-Converter
;;
;; Correspondance:
;; jul316@lehigh.edu or wonpil@lehigh.edu
;;
;; GROMACS topology file for DODMA
;;


[ moleculetype ]
; name	nrexcl
DODMA	     3

[ atoms ]
; nr	type	resnr	residu	atom	cgnr	charge	mass
     1      NG301      3    DODMA     N1      1    -0.630000    14.0070   ; qtot -0.630
     2     CG3AM0      3    DODMA    CN1      2    -0.060000    12.0110   ; qtot -0.690
     3     HGAAM0      3    DODMA   HN11      3     0.090000     1.0080   ; qtot -0.600
     4     HGAAM0      3    DODMA   HN12      4     0.090000     1.0080   ; qtot -0.510
     5     HGAAM0      3    DODMA   HN13      5     0.090000     1.0080   ; qtot -0.420
     6     CG3AM0      3    DODMA    CN2      6    -0.060000    12.0110   ; qtot -0.480
     7     HGAAM0      3    DODMA   HN21      7     0.090000     1.0080   ; qtot -0.390
     8     HGAAM0      3    DODMA   HN22      8     0.090000     1.0080   ; qtot -0.300
     9     HGAAM0      3    DODMA   HN23      9     0.090000     1.0080   ; qtot -0.210
    10      CG321      3    DODMA     C1     10     0.030000    12.0110   ; qtot -0.180
    11       HGA2      3    DODMA    H11     11     0.090000     1.0080   ; qtot -0.090
    12       HGA2      3    DODMA    H12     12     0.090000     1.0080   ; qtot -0.000
    13      CG311      3    DODMA     C2     13     0.130000    12.0110   ; qtot  0.130
    14       HGA1      3    DODMA     HS     14     0.010000     1.0080   ; qtot  0.140
    15      OG301      3    DODMA    O21     15    -0.560000    15.9994   ; qtot -0.420
    16       CTL2      3    DODMA    C21     16     0.400000    12.0110   ; qtot -0.020
    17       HAL2      3    DODMA    H1R     17     0.010000     1.0080   ; qtot -0.010
    18       HAL2      3    DODMA    H1S     18     0.010000     1.0080   ; qtot -0.000
    19       CTL2      3    DODMA    C22     19    -0.180000    12.0110   ; qtot -0.180
    20       HAL2      3    DODMA    H2R     20     0.090000     1.0080   ; qtot -0.090
    21       HAL2      3    DODMA    H2S     21     0.090000     1.0080   ; qtot -0.000
    22      CG321      3    DODMA     C3     22     0.080000    12.0110   ; qtot  0.080
    23       HGA2      3    DODMA     HX     23     0.020000     1.0080   ; qtot  0.100
    24       HGA2      3    DODMA     HY     24     0.020000     1.0080   ; qtot  0.120
    25      OG301      3    DODMA    O31     25    -0.560000    15.9994   ; qtot -0.440
    26       CTL2      3    DODMA    C31     26     0.400000    12.0110   ; qtot -0.040
    27       HAL2      3    DODMA    H1X     27     0.020000     1.0080   ; qtot -0.020
    28       HAL2      3    DODMA    H1Y     28     0.020000     1.0080   ; qtot -0.000
    29       CTL2      3    DODMA    C32     29    -0.180000    12.0110   ; qtot -0.180
    30       HAL2      3    DODMA    H2X     30     0.090000     1.0080   ; qtot -0.090
    31       HAL2      3    DODMA    H2Y     31     0.090000     1.0080   ; qtot -0.000
    32       CTL2      3    DODMA    C23     32    -0.180000    12.0110   ; qtot -0.180
    33       HAL2      3    DODMA    H3R     33     0.090000     1.0080   ; qtot -0.090
    34       HAL2      3    DODMA    H3S     34     0.090000     1.0080   ; qtot -0.000
    35       CTL2      3    DODMA    C24     35    -0.180000    12.0110   ; qtot -0.180
    36       HAL2      3    DODMA    H4R     36     0.090000     1.0080   ; qtot -0.090
    37       HAL2      3    DODMA    H4S     37     0.090000     1.0080   ; qtot -0.000
    38       CTL2      3    DODMA    C25     38    -0.180000    12.0110   ; qtot -0.180
    39       HAL2      3    DODMA    H5R     39     0.090000     1.0080   ; qtot -0.090
    40       HAL2      3    DODMA    H5S     40     0.090000     1.0080   ; qtot -0.000
    41       CTL2      3    DODMA    C26     41    -0.180000    12.0110   ; qtot -0.180
    42       HAL2      3    DODMA    H6R     42     0.090000     1.0080   ; qtot -0.090
    43       HAL2      3    DODMA    H6S     43     0.090000     1.0080   ; qtot -0.000
    44       CTL2      3    DODMA    C27     44    -0.180000    12.0110   ; qtot -0.180
    45       HAL2      3    DODMA    H7R     45     0.090000     1.0080   ; qtot -0.090
    46       HAL2      3    DODMA    H7S     46     0.090000     1.0080   ; qtot -0.000
    47       CTL2      3    DODMA    C28     47    -0.180000    12.0110   ; qtot -0.180
    48       HAL2      3    DODMA    H8R     48     0.090000     1.0080   ; qtot -0.090
    49       HAL2      3    DODMA    H8S     49     0.090000     1.0080   ; qtot -0.000
    50       CEL1      3    DODMA    C29     50    -0.150000    12.0110   ; qtot -0.150
    51       HEL1      3    DODMA    H9R     51     0.150000     1.0080   ; qtot -0.000
    52       CEL1      3    DODMA   C210     52    -0.150000    12.0110   ; qtot -0.150
    53       HEL1      3    DODMA   H10R     53     0.150000     1.0080   ; qtot -0.000
    54       CTL2      3    DODMA   C211     54    -0.180000    12.0110   ; qtot -0.180
    55       HAL2      3    DODMA   H11R     55     0.090000     1.0080   ; qtot -0.090
    56       HAL2      3    DODMA   H11S     56     0.090000     1.0080   ; qtot -0.000
    57       CTL2      3    DODMA   C212     57    -0.180000    12.0110   ; qtot -0.180
    58       HAL2      3    DODMA   H12R     58     0.090000     1.0080   ; qtot -0.090
    59       HAL2      3    DODMA   H12S     59     0.090000     1.0080   ; qtot -0.000
    60       CTL2      3    DODMA   C213     60    -0.180000    12.0110   ; qtot -0.180
    61       HAL2      3    DODMA   H13R     61     0.090000     1.0080   ; qtot -0.090
    62       HAL2      3    DODMA   H13S     62     0.090000     1.0080   ; qtot -0.000
    63       CTL2      3    DODMA   C214     63    -0.180000    12.0110   ; qtot -0.180
    64       HAL2      3    DODMA   H14R     64     0.090000     1.0080   ; qtot -0.090
    65       HAL2      3    DODMA   H14S     65     0.090000     1.0080   ; qtot -0.000
    66       CTL2      3    DODMA   C215     66    -0.180000    12.0110   ; qtot -0.180
    67       HAL2      3    DODMA   H15R     67     0.090000     1.0080   ; qtot -0.090
    68       HAL2      3    DODMA   H15S     68     0.090000     1.0080   ; qtot -0.000
    69       CTL2      3    DODMA   C216     69    -0.180000    12.0110   ; qtot -0.180
    70       HAL2      3    DODMA   H16R     70     0.090000     1.0080   ; qtot -0.090
    71       HAL2      3    DODMA   H16S     71     0.090000     1.0080   ; qtot -0.000
    72       CTL2      3    DODMA   C217     72    -0.180000    12.0110   ; qtot -0.180
    73       HAL2      3    DODMA   H17R     73     0.090000     1.0080   ; qtot -0.090
    74       HAL2      3    DODMA   H17S     74     0.090000     1.0080   ; qtot -0.000
    75       CTL3      3    DODMA   C218     75    -0.270000    12.0110   ; qtot -0.270
    76       HAL3      3    DODMA   H18R     76     0.090000     1.0080   ; qtot -0.180
    77       HAL3      3    DODMA   H18S     77     0.090000     1.0080   ; qtot -0.090
    78       HAL3      3    DODMA   H18T     78     0.090000     1.0080   ; qtot -0.000
    79       CTL2      3    DODMA    C33     79    -0.180000    12.0110   ; qtot -0.180
    80       HAL2      3    DODMA    H3X     80     0.090000     1.0080   ; qtot -0.090
    81       HAL2      3    DODMA    H3Y     81     0.090000     1.0080   ; qtot -0.000
    82       CTL2      3    DODMA    C34     82    -0.180000    12.0110   ; qtot -0.180
    83       HAL2      3    DODMA    H4X     83     0.090000     1.0080   ; qtot -0.090
    84       HAL2      3    DODMA    H4Y     84     0.090000     1.0080   ; qtot -0.000
    85       CTL2      3    DODMA    C35     85    -0.180000    12.0110   ; qtot -0.180
    86       HAL2      3    DODMA    H5X     86     0.090000     1.0080   ; qtot -0.090
    87       HAL2      3    DODMA    H5Y     87     0.090000     1.0080   ; qtot -0.000
    88       CTL2      3    DODMA    C36     88    -0.180000    12.0110   ; qtot -0.180
    89       HAL2      3    DODMA    H6X     89     0.090000     1.0080   ; qtot -0.090
    90       HAL2      3    DODMA    H6Y     90     0.090000     1.0080   ; qtot -0.000
    91       CTL2      3    DODMA    C37     91    -0.180000    12.0110   ; qtot -0.180
    92       HAL2      3    DODMA    H7X     92     0.090000     1.0080   ; qtot -0.090
    93       HAL2      3    DODMA    H7Y     93     0.090000     1.0080   ; qtot -0.000
    94       CTL2      3    DODMA    C38     94    -0.180000    12.0110   ; qtot -0.180
    95       HAL2      3    DODMA    H8X     95     0.090000     1.0080   ; qtot -0.090
    96       HAL2      3    DODMA    H8Y     96     0.090000     1.0080   ; qtot -0.000
    97       CEL1      3    DODMA    C39     97    -0.150000    12.0110   ; qtot -0.150
    98       HEL1      3    DODMA    H9X     98     0.150000     1.0080   ; qtot -0.000
    99       CEL1      3    DODMA   C310     99    -0.150000    12.0110   ; qtot -0.150
   100       HEL1      3    DODMA   H10X    100     0.150000     1.0080   ; qtot -0.000
   101       CTL2      3    DODMA   C311    101    -0.180000    12.0110   ; qtot -0.180
   102       HAL2      3    DODMA   H11X    102     0.090000     1.0080   ; qtot -0.090
   103       HAL2      3    DODMA   H11Y    103     0.090000     1.0080   ; qtot -0.000
   104       CTL2      3    DODMA   C312    104    -0.180000    12.0110   ; qtot -0.180
   105       HAL2      3    DODMA   H12X    105     0.090000     1.0080   ; qtot -0.090
   106       HAL2      3    DODMA   H12Y    106     0.090000     1.0080   ; qtot -0.000
   107       CTL2      3    DODMA   C313    107    -0.180000    12.0110   ; qtot -0.180
   108       HAL2      3    DODMA   H13X    108     0.090000     1.0080   ; qtot -0.090
   109       HAL2      3    DODMA   H13Y    109     0.090000     1.0080   ; qtot -0.000
   110       CTL2      3    DODMA   C314    110    -0.180000    12.0110   ; qtot -0.180
   111       HAL2      3    DODMA   H14X    111     0.090000     1.0080   ; qtot -0.090
   112       HAL2      3    DODMA   H14Y    112     0.090000     1.0080   ; qtot -0.000
   113       CTL2      3    DODMA   C315    113    -0.180000    12.0110   ; qtot -0.180
   114       HAL2      3    DODMA   H15X    114     0.090000     1.0080   ; qtot -0.090
   115       HAL2      3    DODMA   H15Y    115     0.090000     1.0080   ; qtot -0.000
   116       CTL2      3    DODMA   C316    116    -0.180000    12.0110   ; qtot -0.180
   117       HAL2      3    DODMA   H16X    117     0.090000     1.0080   ; qtot -0.090
   118       HAL2      3    DODMA   H16Y    118     0.090000     1.0080   ; qtot -0.000
   119       CTL2      3    DODMA   C317    119    -0.180000    12.0110   ; qtot -0.180
   120       HAL2      3    DODMA   H17X    120     0.090000     1.0080   ; qtot -0.090
   121       HAL2      3    DODMA   H17Y    121     0.090000     1.0080   ; qtot -0.000
   122       CTL3      3    DODMA   C318    122    -0.270000    12.0110   ; qtot -0.270
   123       HAL3      3    DODMA   H18X    123     0.090000     1.0080   ; qtot -0.180
   124       HAL3      3    DODMA   H18Y    124     0.090000     1.0080   ; qtot -0.090
   125       HAL3      3    DODMA   H18Z    125     0.090000     1.0080   ; qtot -0.000

[ bonds ]
; ai	aj	funct	b0	Kb
    1     2     1
    1     6     1
    1    10     1
    2     3     1
    2     4     1
    2     5     1
    6     7     1
    6     8     1
    6     9     1
   10    11     1
   10    12     1
   10    13     1
   13    14     1
   13    15     1
   13    22     1
   15    16     1
   16    17     1
   16    18     1
   16    19     1
   19    20     1
   19    21     1
   19    32     1
   22    23     1
   22    24     1
   22    25     1
   25    26     1
   26    27     1
   26    28     1
   26    29     1
   29    30     1
   29    31     1
   29    79     1
   32    33     1
   32    34     1
   32    35     1
   35    36     1
   35    37     1
   35    38     1
   38    39     1
   38    40     1
   38    41     1
   41    42     1
   41    43     1
   41    44     1
   44    45     1
   44    46     1
   44    47     1
   47    48     1
   47    49     1
   47    50     1
   50    51     1
   50    52     1
   52    53     1
   52    54     1
   54    55     1
   54    56     1
   54    57     1
   57    58     1
   57    59     1
   57    60     1
   60    61     1
   60    62     1
   60    63     1
   63    64     1
   63    65     1
   63    66     1
   66    67     1
   66    68     1
   66    69     1
   69    70     1
   69    71     1
   69    72     1
   72    73     1
   72    74     1
   72    75     1
   75    76     1
   75    77     1
   75    78     1
   79    80     1
   79    81     1
   79    82     1
   82    83     1
   82    84     1
   82    85     1
   85    86     1
   85    87     1
   85    88     1
   88    89     1
   88    90     1
   88    91     1
   91    92     1
   91    93     1
   91    94     1
   94    95     1
   94    96     1
   94    97     1
   97    98     1
   97    99     1
   99   100     1
   99   101     1
  101   102     1
  101   103     1
  101   104     1
  104   105     1
  104   106     1
  104   107     1
  107   108     1
  107   109     1
  107   110     1
  110   111     1
  110   112     1
  110   113     1
  113   114     1
  113   115     1
  113   116     1
  116   117     1
  116   118     1
  116   119     1
  119   120     1
  119   121     1
  119   122     1
  122   123     1
  122   124     1
  122   125     1

[ pairs ]
; ai	aj	funct	c6	c12 or
; ai	aj	funct	fudgeQQ	q1	q2	c6	c12
    1    14     1
    1    15     1
    1    22     1
    2     7     1
    2     8     1
    2     9     1
    2    11     1
    2    12     1
    2    13     1
    3     6     1
    3    10     1
    4     6     1
    4    10     1
    5     6     1
    5    10     1
    6    11     1
    6    12     1
    6    13     1
    7    10     1
    8    10     1
    9    10     1
   10    16     1
   10    23     1
   10    24     1
   10    25     1
   11    14     1
   11    15     1
   11    22     1
   12    14     1
   12    15     1
   12    22     1
   13    17     1
   13    18     1
   13    19     1
   13    26     1
   14    16     1
   14    23     1
   14    24     1
   14    25     1
   15    20     1
   15    21     1
   15    23     1
   15    24     1
   15    25     1
   15    32     1
   16    22     1
   16    33     1
   16    34     1
   16    35     1
   17    20     1
   17    21     1
   17    32     1
   18    20     1
   18    21     1
   18    32     1
   19    36     1
   19    37     1
   19    38     1
   20    33     1
   20    34     1
   20    35     1
   21    33     1
   21    34     1
   21    35     1
   22    27     1
   22    28     1
   22    29     1
   23    26     1
   24    26     1
   25    30     1
   25    31     1
   25    79     1
   26    80     1
   26    81     1
   26    82     1
   27    30     1
   27    31     1
   27    79     1
   28    30     1
   28    31     1
   28    79     1
   29    83     1
   29    84     1
   29    85     1
   30    80     1
   30    81     1
   30    82     1
   31    80     1
   31    81     1
   31    82     1
   32    39     1
   32    40     1
   32    41     1
   33    36     1
   33    37     1
   33    38     1
   34    36     1
   34    37     1
   34    38     1
   35    42     1
   35    43     1
   35    44     1
   36    39     1
   36    40     1
   36    41     1
   37    39     1
   37    40     1
   37    41     1
   38    45     1
   38    46     1
   38    47     1
   39    42     1
   39    43     1
   39    44     1
   40    42     1
   40    43     1
   40    44     1
   41    48     1
   41    49     1
   41    50     1
   42    45     1
   42    46     1
   42    47     1
   43    45     1
   43    46     1
   43    47     1
   44    51     1
   44    52     1
   45    48     1
   45    49     1
   45    50     1
   46    48     1
   46    49     1
   46    50     1
   47    53     1
   47    54     1
   48    51     1
   48    52     1
   49    51     1
   49    52     1
   50    55     1
   50    56     1
   50    57     1
   51    53     1
   51    54     1
   52    58     1
   52    59     1
   52    60     1
   53    55     1
   53    56     1
   53    57     1
   54    61     1
   54    62     1
   54    63     1
   55    58     1
   55    59     1
   55    60     1
   56    58     1
   56    59     1
   56    60     1
   57    64     1
   57    65     1
   57    66     1
   58    61     1
   58    62     1
   58    63     1
   59    61     1
   59    62     1
   59    63     1
   60    67     1
   60    68     1
   60    69     1
   61    64     1
   61    65     1
   61    66     1
   62    64     1
   62    65     1
   62    66     1
   63    70     1
   63    71     1
   63    72     1
   64    67     1
   64    68     1
   64    69     1
   65    67     1
   65    68     1
   65    69     1
   66    73     1
   66    74     1
   66    75     1
   67    70     1
   67    71     1
   67    72     1
   68    70     1
   68    71     1
   68    72     1
   69    76     1
   69    77     1
   69    78     1
   70    73     1
   70    74     1
   70    75     1
   71    73     1
   71    74     1
   71    75     1
   73    76     1
   73    77     1
   73    78     1
   74    76     1
   74    77     1
   74    78     1
   79    86     1
   79    87     1
   79    88     1
   80    83     1
   80    84     1
   80    85     1
   81    83     1
   81    84     1
   81    85     1
   82    89     1
   82    90     1
   82    91     1
   83    86     1
   83    87     1
   83    88     1
   84    86     1
   84    87     1
   84    88     1
   85    92     1
   85    93     1
   85    94     1
   86    89     1
   86    90     1
   86    91     1
   87    89     1
   87    90     1
   87    91     1
   88    95     1
   88    96     1
   88    97     1
   89    92     1
   89    93     1
   89    94     1
   90    92     1
   90    93     1
   90    94     1
   91    98     1
   91    99     1
   92    95     1
   92    96     1
   92    97     1
   93    95     1
   93    96     1
   93    97     1
   94   100     1
   94   101     1
   95    98     1
   95    99     1
   96    98     1
   96    99     1
   97   102     1
   97   103     1
   97   104     1
   98   100     1
   98   101     1
   99   105     1
   99   106     1
   99   107     1
  100   102     1
  100   103     1
  100   104     1
  101   108     1
  101   109     1
  101   110     1
  102   105     1
  102   106     1
  102   107     1
  103   105     1
  103   106     1
  103   107     1
  104   111     1
  104   112     1
  104   113     1
  105   108     1
  105   109     1
  105   110     1
  106   108     1
  106   109     1
  106   110     1
  107   114     1
  107   115     1
  107   116     1
  108   111     1
  108   112     1
  108   113     1
  109   111     1
  109   112     1
  109   113     1
  110   117     1
  110   118     1
  110   119     1
  111   114     1
  111   115     1
  111   116     1
  112   114     1
  112   115     1
  112   116     1
  113   120     1
  113   121     1
  113   122     1
  114   117     1
  114   118     1
  114   119     1
  115   117     1
  115   118     1
  115   119     1
  116   123     1
  116   124     1
  116   125     1
  117   120     1
  117   121     1
  117   122     1
  118   120     1
  118   121     1
  118   122     1
  120   123     1
  120   124     1
  120   125     1
  121   123     1
  121   124     1
  121   125     1

[ angles ] 
; ai	aj	ak	funct	th0	cth	S0	Kub
    2     1     6     5
    2     1    10     5
    6     1    10     5
    1     2     3     5
    1     2     4     5
    1     2     5     5
    3     2     4     5
    3     2     5     5
    4     2     5     5
    1     6     7     5
    1     6     8     5
    1     6     9     5
    7     6     8     5
    7     6     9     5
    8     6     9     5
    1    10    11     5
    1    10    12     5
    1    10    13     5
   11    10    12     5
   11    10    13     5
   12    10    13     5
   10    13    14     5
   10    13    15     5
   10    13    22     5
   14    13    15     5
   14    13    22     5
   15    13    22     5
   13    15    16     5
   15    16    17     5
   15    16    18     5
   15    16    19     5
   17    16    18     5
   17    16    19     5
   18    16    19     5
   16    19    20     5
   16    19    21     5
   16    19    32     5
   20    19    21     5
   20    19    32     5
   21    19    32     5
   13    22    23     5
   13    22    24     5
   13    22    25     5
   23    22    24     5
   23    22    25     5
   24    22    25     5
   22    25    26     5
   25    26    27     5
   25    26    28     5
   25    26    29     5
   27    26    28     5
   27    26    29     5
   28    26    29     5
   26    29    30     5
   26    29    31     5
   26    29    79     5
   30    29    31     5
   30    29    79     5
   31    29    79     5
   19    32    33     5
   19    32    34     5
   19    32    35     5
   33    32    34     5
   33    32    35     5
   34    32    35     5
   32    35    36     5
   32    35    37     5
   32    35    38     5
   36    35    37     5
   36    35    38     5
   37    35    38     5
   35    38    39     5
   35    38    40     5
   35    38    41     5
   39    38    40     5
   39    38    41     5
   40    38    41     5
   38    41    42     5
   38    41    43     5
   38    41    44     5
   42    41    43     5
   42    41    44     5
   43    41    44     5
   41    44    45     5
   41    44    46     5
   41    44    47     5
   45    44    46     5
   45    44    47     5
   46    44    47     5
   44    47    48     5
   44    47    49     5
   44    47    50     5
   48    47    49     5
   48    47    50     5
   49    47    50     5
   47    50    51     5
   47    50    52     5
   51    50    52     5
   50    52    53     5
   50    52    54     5
   53    52    54     5
   52    54    55     5
   52    54    56     5
   52    54    57     5
   55    54    56     5
   55    54    57     5
   56    54    57     5
   54    57    58     5
   54    57    59     5
   54    57    60     5
   58    57    59     5
   58    57    60     5
   59    57    60     5
   57    60    61     5
   57    60    62     5
   57    60    63     5
   61    60    62     5
   61    60    63     5
   62    60    63     5
   60    63    64     5
   60    63    65     5
   60    63    66     5
   64    63    65     5
   64    63    66     5
   65    63    66     5
   63    66    67     5
   63    66    68     5
   63    66    69     5
   67    66    68     5
   67    66    69     5
   68    66    69     5
   66    69    70     5
   66    69    71     5
   66    69    72     5
   70    69    71     5
   70    69    72     5
   71    69    72     5
   69    72    73     5
   69    72    74     5
   69    72    75     5
   73    72    74     5
   73    72    75     5
   74    72    75     5
   72    75    76     5
   72    75    77     5
   72    75    78     5
   76    75    77     5
   76    75    78     5
   77    75    78     5
   29    79    80     5
   29    79    81     5
   29    79    82     5
   80    79    81     5
   80    79    82     5
   81    79    82     5
   79    82    83     5
   79    82    84     5
   79    82    85     5
   83    82    84     5
   83    82    85     5
   84    82    85     5
   82    85    86     5
   82    85    87     5
   82    85    88     5
   86    85    87     5
   86    85    88     5
   87    85    88     5
   85    88    89     5
   85    88    90     5
   85    88    91     5
   89    88    90     5
   89    88    91     5
   90    88    91     5
   88    91    92     5
   88    91    93     5
   88    91    94     5
   92    91    93     5
   92    91    94     5
   93    91    94     5
   91    94    95     5
   91    94    96     5
   91    94    97     5
   95    94    96     5
   95    94    97     5
   96    94    97     5
   94    97    98     5
   94    97    99     5
   98    97    99     5
   97    99   100     5
   97    99   101     5
  100    99   101     5
   99   101   102     5
   99   101   103     5
   99   101   104     5
  102   101   103     5
  102   101   104     5
  103   101   104     5
  101   104   105     5
  101   104   106     5
  101   104   107     5
  105   104   106     5
  105   104   107     5
  106   104   107     5
  104   107   108     5
  104   107   109     5
  104   107   110     5
  108   107   109     5
  108   107   110     5
  109   107   110     5
  107   110   111     5
  107   110   112     5
  107   110   113     5
  111   110   112     5
  111   110   113     5
  112   110   113     5
  110   113   114     5
  110   113   115     5
  110   113   116     5
  114   113   115     5
  114   113   116     5
  115   113   116     5
  113   116   117     5
  113   116   118     5
  113   116   119     5
  117   116   118     5
  117   116   119     5
  118   116   119     5
  116   119   120     5
  116   119   121     5
  116   119   122     5
  120   119   121     5
  120   119   122     5
  121   119   122     5
  119   122   123     5
  119   122   124     5
  119   122   125     5
  123   122   124     5
  123   122   125     5
  124   122   125     5

[ dihedrals ]
; ai	aj	ak	al	funct	phi0	cp	mult
    2     1     6     7     9
    2     1     6     8     9
    2     1     6     9     9
    2     1    10    11     9
    2     1    10    12     9
    2     1    10    13     9
    6     1    10    11     9
    6     1    10    12     9
    6     1    10    13     9
    3     2     1     6     9
    3     2     1    10     9
    4     2     1     6     9
    4     2     1    10     9
    5     2     1     6     9
    5     2     1    10     9
    7     6     1    10     9
    8     6     1    10     9
    9     6     1    10     9
    1    10    13    14     9
    1    10    13    15     9
    1    10    13    22     9
   11    10    13    14     9
   11    10    13    15     9
   11    10    13    22     9
   12    10    13    14     9
   12    10    13    15     9
   12    10    13    22     9
   10    13    15    16     9
   14    13    15    16     9
   10    13    22    23     9
   10    13    22    24     9
   10    13    22    25     9
   14    13    22    23     9
   14    13    22    24     9
   14    13    22    25     9
   15    13    22    23     9
   15    13    22    24     9
   15    13    22    25     9
   16    15    13    22     9
   13    15    16    17     9
   13    15    16    18     9
   13    15    16    19     9
   15    16    19    20     9
   15    16    19    21     9
   15    16    19    32     9
   17    16    19    20     9
   17    16    19    21     9
   17    16    19    32     9
   18    16    19    20     9
   18    16    19    21     9
   18    16    19    32     9
   16    19    32    33     9
   16    19    32    34     9
   16    19    32    35     9
   20    19    32    33     9
   20    19    32    34     9
   20    19    32    35     9
   21    19    32    33     9
   21    19    32    34     9
   21    19    32    35     9
   13    22    25    26     9
   23    22    25    26     9
   24    22    25    26     9
   22    25    26    27     9
   22    25    26    28     9
   22    25    26    29     9
   25    26    29    30     9
   25    26    29    31     9
   25    26    29    79     9
   27    26    29    30     9
   27    26    29    31     9
   27    26    29    79     9
   28    26    29    30     9
   28    26    29    31     9
   28    26    29    79     9
   26    29    79    80     9
   26    29    79    81     9
   26    29    79    82     9
   30    29    79    80     9
   30    29    79    81     9
   30    29    79    82     9
   31    29    79    80     9
   31    29    79    81     9
   31    29    79    82     9
   19    32    35    36     9
   19    32    35    37     9
   19    32    35    38     9
   33    32    35    36     9
   33    32    35    37     9
   33    32    35    38     9
   34    32    35    36     9
   34    32    35    37     9
   34    32    35    38     9
   32    35    38    39     9
   32    35    38    40     9
   32    35    38    41     9
   36    35    38    39     9
   36    35    38    40     9
   36    35    38    41     9
   37    35    38    39     9
   37    35    38    40     9
   37    35    38    41     9
   35    38    41    42     9
   35    38    41    43     9
   35    38    41    44     9
   39    38    41    42     9
   39    38    41    43     9
   39    38    41    44     9
   40    38    41    42     9
   40    38    41    43     9
   40    38    41    44     9
   38    41    44    45     9
   38    41    44    46     9
   38    41    44    47     9
   42    41    44    45     9
   42    41    44    46     9
   42    41    44    47     9
   43    41    44    45     9
   43    41    44    46     9
   43    41    44    47     9
   41    44    47    48     9
   41    44    47    49     9
   41    44    47    50     9
   45    44    47    48     9
   45    44    47    49     9
   45    44    47    50     9
   46    44    47    48     9
   46    44    47    49     9
   46    44    47    50     9
   44    47    50    51     9
   44    47    50    52     9
   48    47    50    51     9
   48    47    50    52     9
   49    47    50    51     9
   49    47    50    52     9
   47    50    52    53     9
   47    50    52    54     9
   51    50    52    53     9
   51    50    52    54     9
   50    52    54    55     9
   50    52    54    56     9
   50    52    54    57     9
   53    52    54    55     9
   53    52    54    56     9
   53    52    54    57     9
   52    54    57    58     9
   52    54    57    59     9
   52    54    57    60     9
   55    54    57    58     9
   55    54    57    59     9
   55    54    57    60     9
   56    54    57    58     9
   56    54    57    59     9
   56    54    57    60     9
   54    57    60    61     9
   54    57    60    62     9
   54    57    60    63     9
   58    57    60    61     9
   58    57    60    62     9
   58    57    60    63     9
   59    57    60    61     9
   59    57    60    62     9
   59    57    60    63     9
   57    60    63    64     9
   57    60    63    65     9
   57    60    63    66     9
   61    60    63    64     9
   61    60    63    65     9
   61    60    63    66     9
   62    60    63    64     9
   62    60    63    65     9
   62    60    63    66     9
   60    63    66    67     9
   60    63    66    68     9
   60    63    66    69     9
   64    63    66    67     9
   64    63    66    68     9
   64    63    66    69     9
   65    63    66    67     9
   65    63    66    68     9
   65    63    66    69     9
   63    66    69    70     9
   63    66    69    71     9
   63    66    69    72     9
   67    66    69    70     9
   67    66    69    71     9
   67    66    69    72     9
   68    66    69    70     9
   68    66    69    71     9
   68    66    69    72     9
   66    69    72    73     9
   66    69    72    74     9
   66    69    72    75     9
   70    69    72    73     9
   70    69    72    74     9
   70    69    72    75     9
   71    69    72    73     9
   71    69    72    74     9
   71    69    72    75     9
   69    72    75    76     9
   69    72    75    77     9
   69    72    75    78     9
   73    72    75    76     9
   73    72    75    77     9
   73    72    75    78     9
   74    72    75    76     9
   74    72    75    77     9
   74    72    75    78     9
   29    79    82    83     9
   29    79    82    84     9
   29    79    82    85     9
   80    79    82    83     9
   80    79    82    84     9
   80    79    82    85     9
   81    79    82    83     9
   81    79    82    84     9
   81    79    82    85     9
   79    82    85    86     9
   79    82    85    87     9
   79    82    85    88     9
   83    82    85    86     9
   83    82    85    87     9
   83    82    85    88     9
   84    82    85    86     9
   84    82    85    87     9
   84    82    85    88     9
   82    85    88    89     9
   82    85    88    90     9
   82    85    88    91     9
   86    85    88    89     9
   86    85    88    90     9
   86    85    88    91     9
   87    85    88    89     9
   87    85    88    90     9
   87    85    88    91     9
   85    88    91    92     9
   85    88    91    93     9
   85    88    91    94     9
   89    88    91    92     9
   89    88    91    93     9
   89    88    91    94     9
   90    88    91    92     9
   90    88    91    93     9
   90    88    91    94     9
   88    91    94    95     9
   88    91    94    96     9
   88    91    94    97     9
   92    91    94    95     9
   92    91    94    96     9
   92    91    94    97     9
   93    91    94    95     9
   93    91    94    96     9
   93    91    94    97     9
   91    94    97    98     9
   91    94    97    99     9
   95    94    97    98     9
   95    94    97    99     9
   96    94    97    98     9
   96    94    97    99     9
   94    97    99   100     9
   94    97    99   101     9
   98    97    99   100     9
   98    97    99   101     9
   97    99   101   102     9
   97    99   101   103     9
   97    99   101   104     9
  100    99   101   102     9
  100    99   101   103     9
  100    99   101   104     9
   99   101   104   105     9
   99   101   104   106     9
   99   101   104   107     9
  102   101   104   105     9
  102   101   104   106     9
  102   101   104   107     9
  103   101   104   105     9
  103   101   104   106     9
  103   101   104   107     9
  101   104   107   108     9
  101   104   107   109     9
  101   104   107   110     9
  105   104   107   108     9
  105   104   107   109     9
  105   104   107   110     9
  106   104   107   108     9
  106   104   107   109     9
  106   104   107   110     9
  104   107   110   111     9
  104   107   110   112     9
  104   107   110   113     9
  108   107   110   111     9
  108   107   110   112     9
  108   107   110   113     9
  109   107   110   111     9
  109   107   110   112     9
  109   107   110   113     9
  107   110   113   114     9
  107   110   113   115     9
  107   110   113   116     9
  111   110   113   114     9
  111   110   113   115     9
  111   110   113   116     9
  112   110   113   114     9
  112   110   113   115     9
  112   110   113   116     9
  110   113   116   117     9
  110   113   116   118     9
  110   113   116   119     9
  114   113   116   117     9
  114   113   116   118     9
  114   113   116   119     9
  115   113   116   117     9
  115   113   116   118     9
  115   113   116   119     9
  113   116   119   120     9
  113   116   119   121     9
  113   116   119   122     9
  117   116   119   120     9
  117   116   119   121     9
  117   116   119   122     9
  118   116   119   120     9
  118   116   119   121     9
  118   116   119   122     9
  116   119   122   123     9
  116   119   122   124     9
  116   119   122   125     9
  120   119   122   123     9
  120   119   122   124     9
  120   119   122   125     9
  121   119   122   123     9
  121   119   122   124     9
  121   119   122   125     9

#ifdef POSRES
[ position_restraints ]
    1     1     0.0             0.0            POSRES_FC_LIPID
#endif

#ifdef DIHRES
[ dihedral_restraints ]
   10    22    13    15     1   -120.0      2.5       DIHRES_FC
   47    50    52    54     1      0.0      0.0       DIHRES_FC
   94    97    99   101     1      0.0      0.0       DIHRES_FC
#endif
