;;
;; Generated by CHARMM-GUI FF-Converter
;;
;; Correspondance:
;; jul316@lehigh.edu or wonpil@lehigh.edu
;;
;; GROMACS topology file for DODMAH
;;


[ moleculetype ]
; name	nrexcl
DODMAH	     3

[ atoms ]
; nr	type	resnr	residu	atom	cgnr	charge	mass
     1      NG3P1     11   DODMAH     N1      1    -0.565000    14.0070   ; qtot -0.565
     2       HGP2     11   DODMAH    HN4      2     0.320000     1.0080   ; qtot -0.245
     3      CG334     11   DODMAH    CN1      3     0.145000    12.0110   ; qtot -0.100
     4       HGA3     11   DODMAH   HN11      4     0.090000     1.0080   ; qtot -0.010
     5       HGA3     11   DODMAH   HN12      5     0.090000     1.0080   ; qtot  0.080
     6       HGA3     11   DODMAH   HN13      6     0.090000     1.0080   ; qtot  0.170
     7      CG334     11   DODMAH    CN2      7     0.145000    12.0110   ; qtot  0.315
     8       HGA3     11   DODMAH   HN21      8     0.090000     1.0080   ; qtot  0.405
     9       HGA3     11   DODMAH   HN22      9     0.090000     1.0080   ; qtot  0.495
    10       HGA3     11   DODMAH   HN23     10     0.090000     1.0080   ; qtot  0.585
    11      CG324     11   DODMAH     C1     11     0.235000    12.0110   ; qtot  0.820
    12       HGA2     11   DODMAH    H11     12     0.090000     1.0080   ; qtot  0.910
    13       HGA2     11   DODMAH    H12     13     0.090000     1.0080   ; qtot  1.000
    14      CG311     11   DODMAH     C2     14     0.130000    12.0110   ; qtot  1.130
    15       HGA1     11   DODMAH     HS     15     0.010000     1.0080   ; qtot  1.140
    16      OG301     11   DODMAH    O21     16    -0.560000    15.9994   ; qtot  0.580
    17       CTL2     11   DODMAH    C21     17     0.400000    12.0110   ; qtot  0.980
    18       HAL2     11   DODMAH    H1R     18     0.010000     1.0080   ; qtot  0.990
    19       HAL2     11   DODMAH    H1S     19     0.010000     1.0080   ; qtot  1.000
    20       CTL2     11   DODMAH    C22     20    -0.180000    12.0110   ; qtot  0.820
    21       HAL2     11   DODMAH    H2R     21     0.090000     1.0080   ; qtot  0.910
    22       HAL2     11   DODMAH    H2S     22     0.090000     1.0080   ; qtot  1.000
    23      CG321     11   DODMAH     C3     23     0.080000    12.0110   ; qtot  1.080
    24       HGA2     11   DODMAH     HX     24     0.020000     1.0080   ; qtot  1.100
    25       HGA2     11   DODMAH     HY     25     0.020000     1.0080   ; qtot  1.120
    26      OG301     11   DODMAH    O31     26    -0.560000    15.9994   ; qtot  0.560
    27       CTL2     11   DODMAH    C31     27     0.400000    12.0110   ; qtot  0.960
    28       HAL2     11   DODMAH    H1X     28     0.020000     1.0080   ; qtot  0.980
    29       HAL2     11   DODMAH    H1Y     29     0.020000     1.0080   ; qtot  1.000
    30       CTL2     11   DODMAH    C32     30    -0.180000    12.0110   ; qtot  0.820
    31       HAL2     11   DODMAH    H2X     31     0.090000     1.0080   ; qtot  0.910
    32       HAL2     11   DODMAH    H2Y     32     0.090000     1.0080   ; qtot  1.000
    33       CTL2     11   DODMAH    C23     33    -0.180000    12.0110   ; qtot  0.820
    34       HAL2     11   DODMAH    H3R     34     0.090000     1.0080   ; qtot  0.910
    35       HAL2     11   DODMAH    H3S     35     0.090000     1.0080   ; qtot  1.000
    36       CTL2     11   DODMAH    C24     36    -0.180000    12.0110   ; qtot  0.820
    37       HAL2     11   DODMAH    H4R     37     0.090000     1.0080   ; qtot  0.910
    38       HAL2     11   DODMAH    H4S     38     0.090000     1.0080   ; qtot  1.000
    39       CTL2     11   DODMAH    C25     39    -0.180000    12.0110   ; qtot  0.820
    40       HAL2     11   DODMAH    H5R     40     0.090000     1.0080   ; qtot  0.910
    41       HAL2     11   DODMAH    H5S     41     0.090000     1.0080   ; qtot  1.000
    42       CTL2     11   DODMAH    C26     42    -0.180000    12.0110   ; qtot  0.820
    43       HAL2     11   DODMAH    H6R     43     0.090000     1.0080   ; qtot  0.910
    44       HAL2     11   DODMAH    H6S     44     0.090000     1.0080   ; qtot  1.000
    45       CTL2     11   DODMAH    C27     45    -0.180000    12.0110   ; qtot  0.820
    46       HAL2     11   DODMAH    H7R     46     0.090000     1.0080   ; qtot  0.910
    47       HAL2     11   DODMAH    H7S     47     0.090000     1.0080   ; qtot  1.000
    48       CTL2     11   DODMAH    C28     48    -0.180000    12.0110   ; qtot  0.820
    49       HAL2     11   DODMAH    H8R     49     0.090000     1.0080   ; qtot  0.910
    50       HAL2     11   DODMAH    H8S     50     0.090000     1.0080   ; qtot  1.000
    51       CEL1     11   DODMAH    C29     51    -0.150000    12.0110   ; qtot  0.850
    52       HEL1     11   DODMAH    H9R     52     0.150000     1.0080   ; qtot  1.000
    53       CEL1     11   DODMAH   C210     53    -0.150000    12.0110   ; qtot  0.850
    54       HEL1     11   DODMAH   H10R     54     0.150000     1.0080   ; qtot  1.000
    55       CTL2     11   DODMAH   C211     55    -0.180000    12.0110   ; qtot  0.820
    56       HAL2     11   DODMAH   H11R     56     0.090000     1.0080   ; qtot  0.910
    57       HAL2     11   DODMAH   H11S     57     0.090000     1.0080   ; qtot  1.000
    58       CTL2     11   DODMAH   C212     58    -0.180000    12.0110   ; qtot  0.820
    59       HAL2     11   DODMAH   H12R     59     0.090000     1.0080   ; qtot  0.910
    60       HAL2     11   DODMAH   H12S     60     0.090000     1.0080   ; qtot  1.000
    61       CTL2     11   DODMAH   C213     61    -0.180000    12.0110   ; qtot  0.820
    62       HAL2     11   DODMAH   H13R     62     0.090000     1.0080   ; qtot  0.910
    63       HAL2     11   DODMAH   H13S     63     0.090000     1.0080   ; qtot  1.000
    64       CTL2     11   DODMAH   C214     64    -0.180000    12.0110   ; qtot  0.820
    65       HAL2     11   DODMAH   H14R     65     0.090000     1.0080   ; qtot  0.910
    66       HAL2     11   DODMAH   H14S     66     0.090000     1.0080   ; qtot  1.000
    67       CTL2     11   DODMAH   C215     67    -0.180000    12.0110   ; qtot  0.820
    68       HAL2     11   DODMAH   H15R     68     0.090000     1.0080   ; qtot  0.910
    69       HAL2     11   DODMAH   H15S     69     0.090000     1.0080   ; qtot  1.000
    70       CTL2     11   DODMAH   C216     70    -0.180000    12.0110   ; qtot  0.820
    71       HAL2     11   DODMAH   H16R     71     0.090000     1.0080   ; qtot  0.910
    72       HAL2     11   DODMAH   H16S     72     0.090000     1.0080   ; qtot  1.000
    73       CTL2     11   DODMAH   C217     73    -0.180000    12.0110   ; qtot  0.820
    74       HAL2     11   DODMAH   H17R     74     0.090000     1.0080   ; qtot  0.910
    75       HAL2     11   DODMAH   H17S     75     0.090000     1.0080   ; qtot  1.000
    76       CTL3     11   DODMAH   C218     76    -0.270000    12.0110   ; qtot  0.730
    77       HAL3     11   DODMAH   H18R     77     0.090000     1.0080   ; qtot  0.820
    78       HAL3     11   DODMAH   H18S     78     0.090000     1.0080   ; qtot  0.910
    79       HAL3     11   DODMAH   H18T     79     0.090000     1.0080   ; qtot  1.000
    80       CTL2     11   DODMAH    C33     80    -0.180000    12.0110   ; qtot  0.820
    81       HAL2     11   DODMAH    H3X     81     0.090000     1.0080   ; qtot  0.910
    82       HAL2     11   DODMAH    H3Y     82     0.090000     1.0080   ; qtot  1.000
    83       CTL2     11   DODMAH    C34     83    -0.180000    12.0110   ; qtot  0.820
    84       HAL2     11   DODMAH    H4X     84     0.090000     1.0080   ; qtot  0.910
    85       HAL2     11   DODMAH    H4Y     85     0.090000     1.0080   ; qtot  1.000
    86       CTL2     11   DODMAH    C35     86    -0.180000    12.0110   ; qtot  0.820
    87       HAL2     11   DODMAH    H5X     87     0.090000     1.0080   ; qtot  0.910
    88       HAL2     11   DODMAH    H5Y     88     0.090000     1.0080   ; qtot  1.000
    89       CTL2     11   DODMAH    C36     89    -0.180000    12.0110   ; qtot  0.820
    90       HAL2     11   DODMAH    H6X     90     0.090000     1.0080   ; qtot  0.910
    91       HAL2     11   DODMAH    H6Y     91     0.090000     1.0080   ; qtot  1.000
    92       CTL2     11   DODMAH    C37     92    -0.180000    12.0110   ; qtot  0.820
    93       HAL2     11   DODMAH    H7X     93     0.090000     1.0080   ; qtot  0.910
    94       HAL2     11   DODMAH    H7Y     94     0.090000     1.0080   ; qtot  1.000
    95       CTL2     11   DODMAH    C38     95    -0.180000    12.0110   ; qtot  0.820
    96       HAL2     11   DODMAH    H8X     96     0.090000     1.0080   ; qtot  0.910
    97       HAL2     11   DODMAH    H8Y     97     0.090000     1.0080   ; qtot  1.000
    98       CEL1     11   DODMAH    C39     98    -0.150000    12.0110   ; qtot  0.850
    99       HEL1     11   DODMAH    H9X     99     0.150000     1.0080   ; qtot  1.000
   100       CEL1     11   DODMAH   C310    100    -0.150000    12.0110   ; qtot  0.850
   101       HEL1     11   DODMAH   H10X    101     0.150000     1.0080   ; qtot  1.000
   102       CTL2     11   DODMAH   C311    102    -0.180000    12.0110   ; qtot  0.820
   103       HAL2     11   DODMAH   H11X    103     0.090000     1.0080   ; qtot  0.910
   104       HAL2     11   DODMAH   H11Y    104     0.090000     1.0080   ; qtot  1.000
   105       CTL2     11   DODMAH   C312    105    -0.180000    12.0110   ; qtot  0.820
   106       HAL2     11   DODMAH   H12X    106     0.090000     1.0080   ; qtot  0.910
   107       HAL2     11   DODMAH   H12Y    107     0.090000     1.0080   ; qtot  1.000
   108       CTL2     11   DODMAH   C313    108    -0.180000    12.0110   ; qtot  0.820
   109       HAL2     11   DODMAH   H13X    109     0.090000     1.0080   ; qtot  0.910
   110       HAL2     11   DODMAH   H13Y    110     0.090000     1.0080   ; qtot  1.000
   111       CTL2     11   DODMAH   C314    111    -0.180000    12.0110   ; qtot  0.820
   112       HAL2     11   DODMAH   H14X    112     0.090000     1.0080   ; qtot  0.910
   113       HAL2     11   DODMAH   H14Y    113     0.090000     1.0080   ; qtot  1.000
   114       CTL2     11   DODMAH   C315    114    -0.180000    12.0110   ; qtot  0.820
   115       HAL2     11   DODMAH   H15X    115     0.090000     1.0080   ; qtot  0.910
   116       HAL2     11   DODMAH   H15Y    116     0.090000     1.0080   ; qtot  1.000
   117       CTL2     11   DODMAH   C316    117    -0.180000    12.0110   ; qtot  0.820
   118       HAL2     11   DODMAH   H16X    118     0.090000     1.0080   ; qtot  0.910
   119       HAL2     11   DODMAH   H16Y    119     0.090000     1.0080   ; qtot  1.000
   120       CTL2     11   DODMAH   C317    120    -0.180000    12.0110   ; qtot  0.820
   121       HAL2     11   DODMAH   H17X    121     0.090000     1.0080   ; qtot  0.910
   122       HAL2     11   DODMAH   H17Y    122     0.090000     1.0080   ; qtot  1.000
   123       CTL3     11   DODMAH   C318    123    -0.270000    12.0110   ; qtot  0.730
   124       HAL3     11   DODMAH   H18X    124     0.090000     1.0080   ; qtot  0.820
   125       HAL3     11   DODMAH   H18Y    125     0.090000     1.0080   ; qtot  0.910
   126       HAL3     11   DODMAH   H18Z    126     0.090000     1.0080   ; qtot  1.000

[ bonds ]
; ai	aj	funct	b0	Kb
    1     2     1
    1     3     1
    1     7     1
    1    11     1
    3     4     1
    3     5     1
    3     6     1
    7     8     1
    7     9     1
    7    10     1
   11    12     1
   11    13     1
   11    14     1
   14    15     1
   14    16     1
   14    23     1
   16    17     1
   17    18     1
   17    19     1
   17    20     1
   20    21     1
   20    22     1
   20    33     1
   23    24     1
   23    25     1
   23    26     1
   26    27     1
   27    28     1
   27    29     1
   27    30     1
   30    31     1
   30    32     1
   30    80     1
   33    34     1
   33    35     1
   33    36     1
   36    37     1
   36    38     1
   36    39     1
   39    40     1
   39    41     1
   39    42     1
   42    43     1
   42    44     1
   42    45     1
   45    46     1
   45    47     1
   45    48     1
   48    49     1
   48    50     1
   48    51     1
   51    52     1
   51    53     1
   53    54     1
   53    55     1
   55    56     1
   55    57     1
   55    58     1
   58    59     1
   58    60     1
   58    61     1
   61    62     1
   61    63     1
   61    64     1
   64    65     1
   64    66     1
   64    67     1
   67    68     1
   67    69     1
   67    70     1
   70    71     1
   70    72     1
   70    73     1
   73    74     1
   73    75     1
   73    76     1
   76    77     1
   76    78     1
   76    79     1
   80    81     1
   80    82     1
   80    83     1
   83    84     1
   83    85     1
   83    86     1
   86    87     1
   86    88     1
   86    89     1
   89    90     1
   89    91     1
   89    92     1
   92    93     1
   92    94     1
   92    95     1
   95    96     1
   95    97     1
   95    98     1
   98    99     1
   98   100     1
  100   101     1
  100   102     1
  102   103     1
  102   104     1
  102   105     1
  105   106     1
  105   107     1
  105   108     1
  108   109     1
  108   110     1
  108   111     1
  111   112     1
  111   113     1
  111   114     1
  114   115     1
  114   116     1
  114   117     1
  117   118     1
  117   119     1
  117   120     1
  120   121     1
  120   122     1
  120   123     1
  123   124     1
  123   125     1
  123   126     1

[ pairs ]
; ai	aj	funct	c6	c12 or
; ai	aj	funct	fudgeQQ	q1	q2	c6	c12
    1    15     1
    1    16     1
    1    23     1
    2     4     1
    2     5     1
    2     6     1
    2     8     1
    2     9     1
    2    10     1
    2    12     1
    2    13     1
    2    14     1
    3     8     1
    3     9     1
    3    10     1
    3    12     1
    3    13     1
    3    14     1
    4     7     1
    4    11     1
    5     7     1
    5    11     1
    6     7     1
    6    11     1
    7    12     1
    7    13     1
    7    14     1
    8    11     1
    9    11     1
   10    11     1
   11    17     1
   11    24     1
   11    25     1
   11    26     1
   12    15     1
   12    16     1
   12    23     1
   13    15     1
   13    16     1
   13    23     1
   14    18     1
   14    19     1
   14    20     1
   14    27     1
   15    17     1
   15    24     1
   15    25     1
   15    26     1
   16    21     1
   16    22     1
   16    24     1
   16    25     1
   16    26     1
   16    33     1
   17    23     1
   17    34     1
   17    35     1
   17    36     1
   18    21     1
   18    22     1
   18    33     1
   19    21     1
   19    22     1
   19    33     1
   20    37     1
   20    38     1
   20    39     1
   21    34     1
   21    35     1
   21    36     1
   22    34     1
   22    35     1
   22    36     1
   23    28     1
   23    29     1
   23    30     1
   24    27     1
   25    27     1
   26    31     1
   26    32     1
   26    80     1
   27    81     1
   27    82     1
   27    83     1
   28    31     1
   28    32     1
   28    80     1
   29    31     1
   29    32     1
   29    80     1
   30    84     1
   30    85     1
   30    86     1
   31    81     1
   31    82     1
   31    83     1
   32    81     1
   32    82     1
   32    83     1
   33    40     1
   33    41     1
   33    42     1
   34    37     1
   34    38     1
   34    39     1
   35    37     1
   35    38     1
   35    39     1
   36    43     1
   36    44     1
   36    45     1
   37    40     1
   37    41     1
   37    42     1
   38    40     1
   38    41     1
   38    42     1
   39    46     1
   39    47     1
   39    48     1
   40    43     1
   40    44     1
   40    45     1
   41    43     1
   41    44     1
   41    45     1
   42    49     1
   42    50     1
   42    51     1
   43    46     1
   43    47     1
   43    48     1
   44    46     1
   44    47     1
   44    48     1
   45    52     1
   45    53     1
   46    49     1
   46    50     1
   46    51     1
   47    49     1
   47    50     1
   47    51     1
   48    54     1
   48    55     1
   49    52     1
   49    53     1
   50    52     1
   50    53     1
   51    56     1
   51    57     1
   51    58     1
   52    54     1
   52    55     1
   53    59     1
   53    60     1
   53    61     1
   54    56     1
   54    57     1
   54    58     1
   55    62     1
   55    63     1
   55    64     1
   56    59     1
   56    60     1
   56    61     1
   57    59     1
   57    60     1
   57    61     1
   58    65     1
   58    66     1
   58    67     1
   59    62     1
   59    63     1
   59    64     1
   60    62     1
   60    63     1
   60    64     1
   61    68     1
   61    69     1
   61    70     1
   62    65     1
   62    66     1
   62    67     1
   63    65     1
   63    66     1
   63    67     1
   64    71     1
   64    72     1
   64    73     1
   65    68     1
   65    69     1
   65    70     1
   66    68     1
   66    69     1
   66    70     1
   67    74     1
   67    75     1
   67    76     1
   68    71     1
   68    72     1
   68    73     1
   69    71     1
   69    72     1
   69    73     1
   70    77     1
   70    78     1
   70    79     1
   71    74     1
   71    75     1
   71    76     1
   72    74     1
   72    75     1
   72    76     1
   74    77     1
   74    78     1
   74    79     1
   75    77     1
   75    78     1
   75    79     1
   80    87     1
   80    88     1
   80    89     1
   81    84     1
   81    85     1
   81    86     1
   82    84     1
   82    85     1
   82    86     1
   83    90     1
   83    91     1
   83    92     1
   84    87     1
   84    88     1
   84    89     1
   85    87     1
   85    88     1
   85    89     1
   86    93     1
   86    94     1
   86    95     1
   87    90     1
   87    91     1
   87    92     1
   88    90     1
   88    91     1
   88    92     1
   89    96     1
   89    97     1
   89    98     1
   90    93     1
   90    94     1
   90    95     1
   91    93     1
   91    94     1
   91    95     1
   92    99     1
   92   100     1
   93    96     1
   93    97     1
   93    98     1
   94    96     1
   94    97     1
   94    98     1
   95   101     1
   95   102     1
   96    99     1
   96   100     1
   97    99     1
   97   100     1
   98   103     1
   98   104     1
   98   105     1
   99   101     1
   99   102     1
  100   106     1
  100   107     1
  100   108     1
  101   103     1
  101   104     1
  101   105     1
  102   109     1
  102   110     1
  102   111     1
  103   106     1
  103   107     1
  103   108     1
  104   106     1
  104   107     1
  104   108     1
  105   112     1
  105   113     1
  105   114     1
  106   109     1
  106   110     1
  106   111     1
  107   109     1
  107   110     1
  107   111     1
  108   115     1
  108   116     1
  108   117     1
  109   112     1
  109   113     1
  109   114     1
  110   112     1
  110   113     1
  110   114     1
  111   118     1
  111   119     1
  111   120     1
  112   115     1
  112   116     1
  112   117     1
  113   115     1
  113   116     1
  113   117     1
  114   121     1
  114   122     1
  114   123     1
  115   118     1
  115   119     1
  115   120     1
  116   118     1
  116   119     1
  116   120     1
  117   124     1
  117   125     1
  117   126     1
  118   121     1
  118   122     1
  118   123     1
  119   121     1
  119   122     1
  119   123     1
  121   124     1
  121   125     1
  121   126     1
  122   124     1
  122   125     1
  122   126     1

[ angles ] 
; ai	aj	ak	funct	th0	cth	S0	Kub
    2     1     3     5
    2     1     7     5
    2     1    11     5
    3     1     7     5
    3     1    11     5
    7     1    11     5
    1     3     4     5
    1     3     5     5
    1     3     6     5
    4     3     5     5
    4     3     6     5
    5     3     6     5
    1     7     8     5
    1     7     9     5
    1     7    10     5
    8     7     9     5
    8     7    10     5
    9     7    10     5
    1    11    12     5
    1    11    13     5
    1    11    14     5
   12    11    13     5
   12    11    14     5
   13    11    14     5
   11    14    15     5
   11    14    16     5
   11    14    23     5
   15    14    16     5
   15    14    23     5
   16    14    23     5
   14    16    17     5
   16    17    18     5
   16    17    19     5
   16    17    20     5
   18    17    19     5
   18    17    20     5
   19    17    20     5
   17    20    21     5
   17    20    22     5
   17    20    33     5
   21    20    22     5
   21    20    33     5
   22    20    33     5
   14    23    24     5
   14    23    25     5
   14    23    26     5
   24    23    25     5
   24    23    26     5
   25    23    26     5
   23    26    27     5
   26    27    28     5
   26    27    29     5
   26    27    30     5
   28    27    29     5
   28    27    30     5
   29    27    30     5
   27    30    31     5
   27    30    32     5
   27    30    80     5
   31    30    32     5
   31    30    80     5
   32    30    80     5
   20    33    34     5
   20    33    35     5
   20    33    36     5
   34    33    35     5
   34    33    36     5
   35    33    36     5
   33    36    37     5
   33    36    38     5
   33    36    39     5
   37    36    38     5
   37    36    39     5
   38    36    39     5
   36    39    40     5
   36    39    41     5
   36    39    42     5
   40    39    41     5
   40    39    42     5
   41    39    42     5
   39    42    43     5
   39    42    44     5
   39    42    45     5
   43    42    44     5
   43    42    45     5
   44    42    45     5
   42    45    46     5
   42    45    47     5
   42    45    48     5
   46    45    47     5
   46    45    48     5
   47    45    48     5
   45    48    49     5
   45    48    50     5
   45    48    51     5
   49    48    50     5
   49    48    51     5
   50    48    51     5
   48    51    52     5
   48    51    53     5
   52    51    53     5
   51    53    54     5
   51    53    55     5
   54    53    55     5
   53    55    56     5
   53    55    57     5
   53    55    58     5
   56    55    57     5
   56    55    58     5
   57    55    58     5
   55    58    59     5
   55    58    60     5
   55    58    61     5
   59    58    60     5
   59    58    61     5
   60    58    61     5
   58    61    62     5
   58    61    63     5
   58    61    64     5
   62    61    63     5
   62    61    64     5
   63    61    64     5
   61    64    65     5
   61    64    66     5
   61    64    67     5
   65    64    66     5
   65    64    67     5
   66    64    67     5
   64    67    68     5
   64    67    69     5
   64    67    70     5
   68    67    69     5
   68    67    70     5
   69    67    70     5
   67    70    71     5
   67    70    72     5
   67    70    73     5
   71    70    72     5
   71    70    73     5
   72    70    73     5
   70    73    74     5
   70    73    75     5
   70    73    76     5
   74    73    75     5
   74    73    76     5
   75    73    76     5
   73    76    77     5
   73    76    78     5
   73    76    79     5
   77    76    78     5
   77    76    79     5
   78    76    79     5
   30    80    81     5
   30    80    82     5
   30    80    83     5
   81    80    82     5
   81    80    83     5
   82    80    83     5
   80    83    84     5
   80    83    85     5
   80    83    86     5
   84    83    85     5
   84    83    86     5
   85    83    86     5
   83    86    87     5
   83    86    88     5
   83    86    89     5
   87    86    88     5
   87    86    89     5
   88    86    89     5
   86    89    90     5
   86    89    91     5
   86    89    92     5
   90    89    91     5
   90    89    92     5
   91    89    92     5
   89    92    93     5
   89    92    94     5
   89    92    95     5
   93    92    94     5
   93    92    95     5
   94    92    95     5
   92    95    96     5
   92    95    97     5
   92    95    98     5
   96    95    97     5
   96    95    98     5
   97    95    98     5
   95    98    99     5
   95    98   100     5
   99    98   100     5
   98   100   101     5
   98   100   102     5
  101   100   102     5
  100   102   103     5
  100   102   104     5
  100   102   105     5
  103   102   104     5
  103   102   105     5
  104   102   105     5
  102   105   106     5
  102   105   107     5
  102   105   108     5
  106   105   107     5
  106   105   108     5
  107   105   108     5
  105   108   109     5
  105   108   110     5
  105   108   111     5
  109   108   110     5
  109   108   111     5
  110   108   111     5
  108   111   112     5
  108   111   113     5
  108   111   114     5
  112   111   113     5
  112   111   114     5
  113   111   114     5
  111   114   115     5
  111   114   116     5
  111   114   117     5
  115   114   116     5
  115   114   117     5
  116   114   117     5
  114   117   118     5
  114   117   119     5
  114   117   120     5
  118   117   119     5
  118   117   120     5
  119   117   120     5
  117   120   121     5
  117   120   122     5
  117   120   123     5
  121   120   122     5
  121   120   123     5
  122   120   123     5
  120   123   124     5
  120   123   125     5
  120   123   126     5
  124   123   125     5
  124   123   126     5
  125   123   126     5

[ dihedrals ]
; ai	aj	ak	al	funct	phi0	cp	mult
    2     1     3     4     9
    2     1     3     5     9
    2     1     3     6     9
    2     1     7     8     9
    2     1     7     9     9
    2     1     7    10     9
    3     1     7     8     9
    3     1     7     9     9
    3     1     7    10     9
    2     1    11    12     9
    2     1    11    13     9
    2     1    11    14     9
    3     1    11    12     9
    3     1    11    13     9
    3     1    11    14     9
    7     1    11    12     9
    7     1    11    13     9
    7     1    11    14     9
    4     3     1     7     9
    4     3     1    11     9
    5     3     1     7     9
    5     3     1    11     9
    6     3     1     7     9
    6     3     1    11     9
    8     7     1    11     9
    9     7     1    11     9
   10     7     1    11     9
    1    11    14    15     9
    1    11    14    16     9
    1    11    14    23     9
   12    11    14    15     9
   12    11    14    16     9
   12    11    14    23     9
   13    11    14    15     9
   13    11    14    16     9
   13    11    14    23     9
   11    14    16    17     9
   15    14    16    17     9
   11    14    23    24     9
   11    14    23    25     9
   11    14    23    26     9
   15    14    23    24     9
   15    14    23    25     9
   15    14    23    26     9
   16    14    23    24     9
   16    14    23    25     9
   16    14    23    26     9
   17    16    14    23     9
   14    16    17    18     9
   14    16    17    19     9
   14    16    17    20     9
   16    17    20    21     9
   16    17    20    22     9
   16    17    20    33     9
   18    17    20    21     9
   18    17    20    22     9
   18    17    20    33     9
   19    17    20    21     9
   19    17    20    22     9
   19    17    20    33     9
   17    20    33    34     9
   17    20    33    35     9
   17    20    33    36     9
   21    20    33    34     9
   21    20    33    35     9
   21    20    33    36     9
   22    20    33    34     9
   22    20    33    35     9
   22    20    33    36     9
   14    23    26    27     9
   24    23    26    27     9
   25    23    26    27     9
   23    26    27    28     9
   23    26    27    29     9
   23    26    27    30     9
   26    27    30    31     9
   26    27    30    32     9
   26    27    30    80     9
   28    27    30    31     9
   28    27    30    32     9
   28    27    30    80     9
   29    27    30    31     9
   29    27    30    32     9
   29    27    30    80     9
   27    30    80    81     9
   27    30    80    82     9
   27    30    80    83     9
   31    30    80    81     9
   31    30    80    82     9
   31    30    80    83     9
   32    30    80    81     9
   32    30    80    82     9
   32    30    80    83     9
   20    33    36    37     9
   20    33    36    38     9
   20    33    36    39     9
   34    33    36    37     9
   34    33    36    38     9
   34    33    36    39     9
   35    33    36    37     9
   35    33    36    38     9
   35    33    36    39     9
   33    36    39    40     9
   33    36    39    41     9
   33    36    39    42     9
   37    36    39    40     9
   37    36    39    41     9
   37    36    39    42     9
   38    36    39    40     9
   38    36    39    41     9
   38    36    39    42     9
   36    39    42    43     9
   36    39    42    44     9
   36    39    42    45     9
   40    39    42    43     9
   40    39    42    44     9
   40    39    42    45     9
   41    39    42    43     9
   41    39    42    44     9
   41    39    42    45     9
   39    42    45    46     9
   39    42    45    47     9
   39    42    45    48     9
   43    42    45    46     9
   43    42    45    47     9
   43    42    45    48     9
   44    42    45    46     9
   44    42    45    47     9
   44    42    45    48     9
   42    45    48    49     9
   42    45    48    50     9
   42    45    48    51     9
   46    45    48    49     9
   46    45    48    50     9
   46    45    48    51     9
   47    45    48    49     9
   47    45    48    50     9
   47    45    48    51     9
   45    48    51    52     9
   45    48    51    53     9
   49    48    51    52     9
   49    48    51    53     9
   50    48    51    52     9
   50    48    51    53     9
   48    51    53    54     9
   48    51    53    55     9
   52    51    53    54     9
   52    51    53    55     9
   51    53    55    56     9
   51    53    55    57     9
   51    53    55    58     9
   54    53    55    56     9
   54    53    55    57     9
   54    53    55    58     9
   53    55    58    59     9
   53    55    58    60     9
   53    55    58    61     9
   56    55    58    59     9
   56    55    58    60     9
   56    55    58    61     9
   57    55    58    59     9
   57    55    58    60     9
   57    55    58    61     9
   55    58    61    62     9
   55    58    61    63     9
   55    58    61    64     9
   59    58    61    62     9
   59    58    61    63     9
   59    58    61    64     9
   60    58    61    62     9
   60    58    61    63     9
   60    58    61    64     9
   58    61    64    65     9
   58    61    64    66     9
   58    61    64    67     9
   62    61    64    65     9
   62    61    64    66     9
   62    61    64    67     9
   63    61    64    65     9
   63    61    64    66     9
   63    61    64    67     9
   61    64    67    68     9
   61    64    67    69     9
   61    64    67    70     9
   65    64    67    68     9
   65    64    67    69     9
   65    64    67    70     9
   66    64    67    68     9
   66    64    67    69     9
   66    64    67    70     9
   64    67    70    71     9
   64    67    70    72     9
   64    67    70    73     9
   68    67    70    71     9
   68    67    70    72     9
   68    67    70    73     9
   69    67    70    71     9
   69    67    70    72     9
   69    67    70    73     9
   67    70    73    74     9
   67    70    73    75     9
   67    70    73    76     9
   71    70    73    74     9
   71    70    73    75     9
   71    70    73    76     9
   72    70    73    74     9
   72    70    73    75     9
   72    70    73    76     9
   70    73    76    77     9
   70    73    76    78     9
   70    73    76    79     9
   74    73    76    77     9
   74    73    76    78     9
   74    73    76    79     9
   75    73    76    77     9
   75    73    76    78     9
   75    73    76    79     9
   30    80    83    84     9
   30    80    83    85     9
   30    80    83    86     9
   81    80    83    84     9
   81    80    83    85     9
   81    80    83    86     9
   82    80    83    84     9
   82    80    83    85     9
   82    80    83    86     9
   80    83    86    87     9
   80    83    86    88     9
   80    83    86    89     9
   84    83    86    87     9
   84    83    86    88     9
   84    83    86    89     9
   85    83    86    87     9
   85    83    86    88     9
   85    83    86    89     9
   83    86    89    90     9
   83    86    89    91     9
   83    86    89    92     9
   87    86    89    90     9
   87    86    89    91     9
   87    86    89    92     9
   88    86    89    90     9
   88    86    89    91     9
   88    86    89    92     9
   86    89    92    93     9
   86    89    92    94     9
   86    89    92    95     9
   90    89    92    93     9
   90    89    92    94     9
   90    89    92    95     9
   91    89    92    93     9
   91    89    92    94     9
   91    89    92    95     9
   89    92    95    96     9
   89    92    95    97     9
   89    92    95    98     9
   93    92    95    96     9
   93    92    95    97     9
   93    92    95    98     9
   94    92    95    96     9
   94    92    95    97     9
   94    92    95    98     9
   92    95    98    99     9
   92    95    98   100     9
   96    95    98    99     9
   96    95    98   100     9
   97    95    98    99     9
   97    95    98   100     9
   95    98   100   101     9
   95    98   100   102     9
   99    98   100   101     9
   99    98   100   102     9
   98   100   102   103     9
   98   100   102   104     9
   98   100   102   105     9
  101   100   102   103     9
  101   100   102   104     9
  101   100   102   105     9
  100   102   105   106     9
  100   102   105   107     9
  100   102   105   108     9
  103   102   105   106     9
  103   102   105   107     9
  103   102   105   108     9
  104   102   105   106     9
  104   102   105   107     9
  104   102   105   108     9
  102   105   108   109     9
  102   105   108   110     9
  102   105   108   111     9
  106   105   108   109     9
  106   105   108   110     9
  106   105   108   111     9
  107   105   108   109     9
  107   105   108   110     9
  107   105   108   111     9
  105   108   111   112     9
  105   108   111   113     9
  105   108   111   114     9
  109   108   111   112     9
  109   108   111   113     9
  109   108   111   114     9
  110   108   111   112     9
  110   108   111   113     9
  110   108   111   114     9
  108   111   114   115     9
  108   111   114   116     9
  108   111   114   117     9
  112   111   114   115     9
  112   111   114   116     9
  112   111   114   117     9
  113   111   114   115     9
  113   111   114   116     9
  113   111   114   117     9
  111   114   117   118     9
  111   114   117   119     9
  111   114   117   120     9
  115   114   117   118     9
  115   114   117   119     9
  115   114   117   120     9
  116   114   117   118     9
  116   114   117   119     9
  116   114   117   120     9
  114   117   120   121     9
  114   117   120   122     9
  114   117   120   123     9
  118   117   120   121     9
  118   117   120   122     9
  118   117   120   123     9
  119   117   120   121     9
  119   117   120   122     9
  119   117   120   123     9
  117   120   123   124     9
  117   120   123   125     9
  117   120   123   126     9
  121   120   123   124     9
  121   120   123   125     9
  121   120   123   126     9
  122   120   123   124     9
  122   120   123   125     9
  122   120   123   126     9

#ifdef POSRES
[ position_restraints ]
    1     1     0.0             0.0            POSRES_FC_LIPID
#endif

#ifdef DIHRES
[ dihedral_restraints ]
   11    23    14    16     1   -120.0      2.5       DIHRES_FC
   48    51    53    55     1      0.0      0.0       DIHRES_FC
   95    98   100   102     1      0.0      0.0       DIHRES_FC
#endif
