;;
;; Generated by CHARMM-GUI FF-Converter
;;
;; Correspondance:
;; jul316@lehigh.edu or wonpil@lehigh.edu
;;
;; GROMACS topology file for DOKC1
;;


[ moleculetype ]
; name	nrexcl
DOKC1	     3

[ atoms ]
; nr	type	resnr	residu	atom	cgnr	charge	mass
     1      NG301    181    DOKC1     N1      1    -0.630000    14.0070   ; qtot -0.630
     2     CG3AM0    181    DOKC1    CN1      2    -0.060000    12.0110   ; qtot -0.690
     3     HGAAM0    181    DOKC1   HN11      3     0.090000     1.0080   ; qtot -0.600
     4     HGAAM0    181    DOKC1   HN12      4     0.090000     1.0080   ; qtot -0.510
     5     HGAAM0    181    DOKC1   HN13      5     0.090000     1.0080   ; qtot -0.420
     6     CG3AM0    181    DOKC1    CN2      6    -0.060000    12.0110   ; qtot -0.480
     7     HGAAM0    181    DOKC1   HN21      7     0.090000     1.0080   ; qtot -0.390
     8     HGAAM0    181    DOKC1   HN22      8     0.090000     1.0080   ; qtot -0.300
     9     HGAAM0    181    DOKC1   HN23      9     0.090000     1.0080   ; qtot -0.210
    10      CG321    181    DOKC1     C1     10     0.030000    12.0110   ; qtot -0.180
    11       HGA2    181    DOKC1    H11     11     0.090000     1.0080   ; qtot -0.090
    12       HGA2    181    DOKC1    H12     12     0.090000     1.0080   ; qtot -0.000
    13     OG3C51    181    DOKC1     O1     13    -0.400000    15.9994   ; qtot -0.400
    14     OG3C51    181    DOKC1     O2     14    -0.400000    15.9994   ; qtot -0.800
    15     CG3C51    181    DOKC1     C2     15     0.050000    12.0110   ; qtot -0.750
    16       HGA1    181    DOKC1    H21     16     0.090000     1.0080   ; qtot -0.660
    17     CG3C52    181    DOKC1     C3     17     0.050000    12.0110   ; qtot -0.610
    18       HGA2    181    DOKC1    H31     18     0.090000     1.0080   ; qtot -0.520
    19       HGA2    181    DOKC1    H32     19     0.090000     1.0080   ; qtot -0.430
    20     CG3C50    181    DOKC1     C4     20     0.430000    12.0110   ; qtot -0.000
    21       CTL2    181    DOKC1    C11     21    -0.180000    12.0110   ; qtot -0.180
    22       HAL2    181    DOKC1   H11R     22     0.090000     1.0080   ; qtot -0.090
    23       HAL2    181    DOKC1   H11S     23     0.090000     1.0080   ; qtot -0.000
    24       CTL2    181    DOKC1    C12     24    -0.180000    12.0110   ; qtot -0.180
    25       HAL2    181    DOKC1   H12R     25     0.090000     1.0080   ; qtot -0.090
    26       HAL2    181    DOKC1   H12S     26     0.090000     1.0080   ; qtot -0.000
    27       CTL2    181    DOKC1    C13     27    -0.180000    12.0110   ; qtot -0.180
    28       HAL2    181    DOKC1   H13R     28     0.090000     1.0080   ; qtot -0.090
    29       HAL2    181    DOKC1   H13S     29     0.090000     1.0080   ; qtot -0.000
    30       CTL2    181    DOKC1    C14     30    -0.180000    12.0110   ; qtot -0.180
    31       HAL2    181    DOKC1   H14R     31     0.090000     1.0080   ; qtot -0.090
    32       HAL2    181    DOKC1   H14S     32     0.090000     1.0080   ; qtot -0.000
    33       CTL2    181    DOKC1    C15     33    -0.180000    12.0110   ; qtot -0.180
    34       HAL2    181    DOKC1   H15R     34     0.090000     1.0080   ; qtot -0.090
    35       HAL2    181    DOKC1   H15S     35     0.090000     1.0080   ; qtot -0.000
    36       CTL2    181    DOKC1    C16     36    -0.180000    12.0110   ; qtot -0.180
    37       HAL2    181    DOKC1   H16R     37     0.090000     1.0080   ; qtot -0.090
    38       HAL2    181    DOKC1   H16S     38     0.090000     1.0080   ; qtot -0.000
    39       CTL2    181    DOKC1    C17     39    -0.180000    12.0110   ; qtot -0.180
    40       HAL2    181    DOKC1   H17R     40     0.090000     1.0080   ; qtot -0.090
    41       HAL2    181    DOKC1   H17S     41     0.090000     1.0080   ; qtot -0.000
    42       CTL2    181    DOKC1    C18     42    -0.180000    12.0110   ; qtot -0.180
    43       HAL2    181    DOKC1   H18R     43     0.090000     1.0080   ; qtot -0.090
    44       HAL2    181    DOKC1   H18S     44     0.090000     1.0080   ; qtot -0.000
    45       CEL1    181    DOKC1    C19     45    -0.150000    12.0110   ; qtot -0.150
    46       HEL1    181    DOKC1   H19R     46     0.150000     1.0080   ; qtot -0.000
    47       CEL1    181    DOKC1   C110     47    -0.150000    12.0110   ; qtot -0.150
    48       HEL1    181    DOKC1  H110R     48     0.150000     1.0080   ; qtot -0.000
    49       CTL2    181    DOKC1   C111     49    -0.180000    12.0110   ; qtot -0.180
    50       HAL2    181    DOKC1  H111R     50     0.090000     1.0080   ; qtot -0.090
    51       HAL2    181    DOKC1  H111S     51     0.090000     1.0080   ; qtot -0.000
    52       CTL2    181    DOKC1   C112     52    -0.180000    12.0110   ; qtot -0.180
    53       HAL2    181    DOKC1  H112R     53     0.090000     1.0080   ; qtot -0.090
    54       HAL2    181    DOKC1  H112S     54     0.090000     1.0080   ; qtot -0.000
    55       CTL2    181    DOKC1   C113     55    -0.180000    12.0110   ; qtot -0.180
    56       HAL2    181    DOKC1  H113R     56     0.090000     1.0080   ; qtot -0.090
    57       HAL2    181    DOKC1  H113S     57     0.090000     1.0080   ; qtot -0.000
    58       CTL2    181    DOKC1   C114     58    -0.180000    12.0110   ; qtot -0.180
    59       HAL2    181    DOKC1  H114R     59     0.090000     1.0080   ; qtot -0.090
    60       HAL2    181    DOKC1  H114S     60     0.090000     1.0080   ; qtot -0.000
    61       CTL2    181    DOKC1   C115     61    -0.180000    12.0110   ; qtot -0.180
    62       HAL2    181    DOKC1  H115R     62     0.090000     1.0080   ; qtot -0.090
    63       HAL2    181    DOKC1  H115S     63     0.090000     1.0080   ; qtot -0.000
    64       CTL2    181    DOKC1   C116     64    -0.180000    12.0110   ; qtot -0.180
    65       HAL2    181    DOKC1  H116R     65     0.090000     1.0080   ; qtot -0.090
    66       HAL2    181    DOKC1  H116S     66     0.090000     1.0080   ; qtot -0.000
    67       CTL2    181    DOKC1   C117     67    -0.180000    12.0110   ; qtot -0.180
    68       HAL2    181    DOKC1  H117R     68     0.090000     1.0080   ; qtot -0.090
    69       HAL2    181    DOKC1  H117S     69     0.090000     1.0080   ; qtot -0.000
    70       CTL3    181    DOKC1   C118     70    -0.270000    12.0110   ; qtot -0.270
    71       HAL3    181    DOKC1  H118R     71     0.090000     1.0080   ; qtot -0.180
    72       HAL3    181    DOKC1  H118S     72     0.090000     1.0080   ; qtot -0.090
    73       HAL3    181    DOKC1  H118T     73     0.090000     1.0080   ; qtot -0.000
    74       CTL2    181    DOKC1    C21     74    -0.180000    12.0110   ; qtot -0.180
    75       HAL2    181    DOKC1   H21R     75     0.090000     1.0080   ; qtot -0.090
    76       HAL2    181    DOKC1   H21S     76     0.090000     1.0080   ; qtot -0.000
    77       CTL2    181    DOKC1    C22     77    -0.180000    12.0110   ; qtot -0.180
    78       HAL2    181    DOKC1   H22R     78     0.090000     1.0080   ; qtot -0.090
    79       HAL2    181    DOKC1   H22S     79     0.090000     1.0080   ; qtot -0.000
    80       CTL2    181    DOKC1    C23     80    -0.180000    12.0110   ; qtot -0.180
    81       HAL2    181    DOKC1   H23R     81     0.090000     1.0080   ; qtot -0.090
    82       HAL2    181    DOKC1   H23S     82     0.090000     1.0080   ; qtot -0.000
    83       CTL2    181    DOKC1    C24     83    -0.180000    12.0110   ; qtot -0.180
    84       HAL2    181    DOKC1   H24R     84     0.090000     1.0080   ; qtot -0.090
    85       HAL2    181    DOKC1   H24S     85     0.090000     1.0080   ; qtot -0.000
    86       CTL2    181    DOKC1    C25     86    -0.180000    12.0110   ; qtot -0.180
    87       HAL2    181    DOKC1   H25R     87     0.090000     1.0080   ; qtot -0.090
    88       HAL2    181    DOKC1   H25S     88     0.090000     1.0080   ; qtot -0.000
    89       CTL2    181    DOKC1    C26     89    -0.180000    12.0110   ; qtot -0.180
    90       HAL2    181    DOKC1   H26R     90     0.090000     1.0080   ; qtot -0.090
    91       HAL2    181    DOKC1   H26S     91     0.090000     1.0080   ; qtot -0.000
    92       CTL2    181    DOKC1    C27     92    -0.180000    12.0110   ; qtot -0.180
    93       HAL2    181    DOKC1   H27R     93     0.090000     1.0080   ; qtot -0.090
    94       HAL2    181    DOKC1   H27S     94     0.090000     1.0080   ; qtot -0.000
    95       CTL2    181    DOKC1    C28     95    -0.180000    12.0110   ; qtot -0.180
    96       HAL2    181    DOKC1   H28R     96     0.090000     1.0080   ; qtot -0.090
    97       HAL2    181    DOKC1   H28S     97     0.090000     1.0080   ; qtot -0.000
    98       CEL1    181    DOKC1    C29     98    -0.150000    12.0110   ; qtot -0.150
    99       HEL1    181    DOKC1   H29R     99     0.150000     1.0080   ; qtot -0.000
   100       CEL1    181    DOKC1   C210    100    -0.150000    12.0110   ; qtot -0.150
   101       HEL1    181    DOKC1  H210R    101     0.150000     1.0080   ; qtot -0.000
   102       CTL2    181    DOKC1   C211    102    -0.180000    12.0110   ; qtot -0.180
   103       HAL2    181    DOKC1  H211R    103     0.090000     1.0080   ; qtot -0.090
   104       HAL2    181    DOKC1  H211S    104     0.090000     1.0080   ; qtot -0.000
   105       CTL2    181    DOKC1   C212    105    -0.180000    12.0110   ; qtot -0.180
   106       HAL2    181    DOKC1  H212R    106     0.090000     1.0080   ; qtot -0.090
   107       HAL2    181    DOKC1  H212S    107     0.090000     1.0080   ; qtot -0.000
   108       CTL2    181    DOKC1   C213    108    -0.180000    12.0110   ; qtot -0.180
   109       HAL2    181    DOKC1  H213R    109     0.090000     1.0080   ; qtot -0.090
   110       HAL2    181    DOKC1  H213S    110     0.090000     1.0080   ; qtot -0.000
   111       CTL2    181    DOKC1   C214    111    -0.180000    12.0110   ; qtot -0.180
   112       HAL2    181    DOKC1  H214R    112     0.090000     1.0080   ; qtot -0.090
   113       HAL2    181    DOKC1  H214S    113     0.090000     1.0080   ; qtot -0.000
   114       CTL2    181    DOKC1   C215    114    -0.180000    12.0110   ; qtot -0.180
   115       HAL2    181    DOKC1  H215R    115     0.090000     1.0080   ; qtot -0.090
   116       HAL2    181    DOKC1  H215S    116     0.090000     1.0080   ; qtot -0.000
   117       CTL2    181    DOKC1   C216    117    -0.180000    12.0110   ; qtot -0.180
   118       HAL2    181    DOKC1  H216R    118     0.090000     1.0080   ; qtot -0.090
   119       HAL2    181    DOKC1  H216S    119     0.090000     1.0080   ; qtot -0.000
   120       CTL2    181    DOKC1   C217    120    -0.180000    12.0110   ; qtot -0.180
   121       HAL2    181    DOKC1  H217R    121     0.090000     1.0080   ; qtot -0.090
   122       HAL2    181    DOKC1  H217S    122     0.090000     1.0080   ; qtot -0.000
   123       CTL3    181    DOKC1   C218    123    -0.270000    12.0110   ; qtot -0.270
   124       HAL3    181    DOKC1  H218R    124     0.090000     1.0080   ; qtot -0.180
   125       HAL3    181    DOKC1  H218S    125     0.090000     1.0080   ; qtot -0.090
   126       HAL3    181    DOKC1  H218T    126     0.090000     1.0080   ; qtot -0.000

[ bonds ]
; ai	aj	funct	b0	Kb
    1     2     1
    1     6     1
    1    10     1
    2     3     1
    2     4     1
    2     5     1
    6     7     1
    6     8     1
    6     9     1
   10    11     1
   10    12     1
   10    15     1
   15    13     1
   13    20     1
   14    17     1
   20    14     1
   15    16     1
   15    17     1
   17    18     1
   17    19     1
   20    21     1
   20    74     1
   21    22     1
   21    23     1
   21    24     1
   24    25     1
   24    26     1
   24    27     1
   27    28     1
   27    29     1
   27    30     1
   30    31     1
   30    32     1
   30    33     1
   33    34     1
   33    35     1
   33    36     1
   36    37     1
   36    38     1
   36    39     1
   39    40     1
   39    41     1
   39    42     1
   42    43     1
   42    44     1
   42    45     1
   45    46     1
   45    47     1
   47    48     1
   47    49     1
   49    50     1
   49    51     1
   49    52     1
   52    53     1
   52    54     1
   52    55     1
   55    56     1
   55    57     1
   55    58     1
   58    59     1
   58    60     1
   58    61     1
   61    62     1
   61    63     1
   61    64     1
   64    65     1
   64    66     1
   64    67     1
   67    68     1
   67    69     1
   67    70     1
   70    71     1
   70    72     1
   70    73     1
   74    75     1
   74    76     1
   74    77     1
   77    78     1
   77    79     1
   77    80     1
   80    81     1
   80    82     1
   80    83     1
   83    84     1
   83    85     1
   83    86     1
   86    87     1
   86    88     1
   86    89     1
   89    90     1
   89    91     1
   89    92     1
   92    93     1
   92    94     1
   92    95     1
   95    96     1
   95    97     1
   95    98     1
   98    99     1
   98   100     1
  100   101     1
  100   102     1
  102   103     1
  102   104     1
  102   105     1
  105   106     1
  105   107     1
  105   108     1
  108   109     1
  108   110     1
  108   111     1
  111   112     1
  111   113     1
  111   114     1
  114   115     1
  114   116     1
  114   117     1
  117   118     1
  117   119     1
  117   120     1
  120   121     1
  120   122     1
  120   123     1
  123   124     1
  123   125     1
  123   126     1

[ pairs ]
; ai	aj	funct	c6	c12 or
; ai	aj	funct	fudgeQQ	q1	q2	c6	c12
    1    13     1
    1    16     1
    1    17     1
    2     7     1
    2     8     1
    2     9     1
    2    11     1
    2    12     1
    2    15     1
    3     6     1
    3    10     1
    4     6     1
    4    10     1
    5     6     1
    5    10     1
    6    11     1
    6    12     1
    6    15     1
    7    10     1
    8    10     1
    9    10     1
   10    14     1
   10    18     1
   10    19     1
   10    20     1
   11    13     1
   11    16     1
   11    17     1
   12    13     1
   12    16     1
   12    17     1
   13    18     1
   13    19     1
   13    22     1
   13    23     1
   13    24     1
   13    75     1
   13    76     1
   13    77     1
   14    16     1
   14    22     1
   14    23     1
   14    24     1
   14    75     1
   14    76     1
   14    77     1
   15    21     1
   15    74     1
   16    18     1
   16    19     1
   16    20     1
   17    21     1
   17    74     1
   18    20     1
   19    20     1
   20    25     1
   20    26     1
   20    27     1
   20    78     1
   20    79     1
   20    80     1
   21    28     1
   21    29     1
   21    30     1
   21    75     1
   21    76     1
   21    77     1
   22    25     1
   22    26     1
   22    27     1
   22    74     1
   23    25     1
   23    26     1
   23    27     1
   23    74     1
   24    31     1
   24    32     1
   24    33     1
   24    74     1
   25    28     1
   25    29     1
   25    30     1
   26    28     1
   26    29     1
   26    30     1
   27    34     1
   27    35     1
   27    36     1
   28    31     1
   28    32     1
   28    33     1
   29    31     1
   29    32     1
   29    33     1
   30    37     1
   30    38     1
   30    39     1
   31    34     1
   31    35     1
   31    36     1
   32    34     1
   32    35     1
   32    36     1
   33    40     1
   33    41     1
   33    42     1
   34    37     1
   34    38     1
   34    39     1
   35    37     1
   35    38     1
   35    39     1
   36    43     1
   36    44     1
   36    45     1
   37    40     1
   37    41     1
   37    42     1
   38    40     1
   38    41     1
   38    42     1
   39    46     1
   39    47     1
   40    43     1
   40    44     1
   40    45     1
   41    43     1
   41    44     1
   41    45     1
   42    48     1
   42    49     1
   43    46     1
   43    47     1
   44    46     1
   44    47     1
   45    50     1
   45    51     1
   45    52     1
   46    48     1
   46    49     1
   47    53     1
   47    54     1
   47    55     1
   48    50     1
   48    51     1
   48    52     1
   49    56     1
   49    57     1
   49    58     1
   50    53     1
   50    54     1
   50    55     1
   51    53     1
   51    54     1
   51    55     1
   52    59     1
   52    60     1
   52    61     1
   53    56     1
   53    57     1
   53    58     1
   54    56     1
   54    57     1
   54    58     1
   55    62     1
   55    63     1
   55    64     1
   56    59     1
   56    60     1
   56    61     1
   57    59     1
   57    60     1
   57    61     1
   58    65     1
   58    66     1
   58    67     1
   59    62     1
   59    63     1
   59    64     1
   60    62     1
   60    63     1
   60    64     1
   61    68     1
   61    69     1
   61    70     1
   62    65     1
   62    66     1
   62    67     1
   63    65     1
   63    66     1
   63    67     1
   64    71     1
   64    72     1
   64    73     1
   65    68     1
   65    69     1
   65    70     1
   66    68     1
   66    69     1
   66    70     1
   68    71     1
   68    72     1
   68    73     1
   69    71     1
   69    72     1
   69    73     1
   74    81     1
   74    82     1
   74    83     1
   75    78     1
   75    79     1
   75    80     1
   76    78     1
   76    79     1
   76    80     1
   77    84     1
   77    85     1
   77    86     1
   78    81     1
   78    82     1
   78    83     1
   79    81     1
   79    82     1
   79    83     1
   80    87     1
   80    88     1
   80    89     1
   81    84     1
   81    85     1
   81    86     1
   82    84     1
   82    85     1
   82    86     1
   83    90     1
   83    91     1
   83    92     1
   84    87     1
   84    88     1
   84    89     1
   85    87     1
   85    88     1
   85    89     1
   86    93     1
   86    94     1
   86    95     1
   87    90     1
   87    91     1
   87    92     1
   88    90     1
   88    91     1
   88    92     1
   89    96     1
   89    97     1
   89    98     1
   90    93     1
   90    94     1
   90    95     1
   91    93     1
   91    94     1
   91    95     1
   92    99     1
   92   100     1
   93    96     1
   93    97     1
   93    98     1
   94    96     1
   94    97     1
   94    98     1
   95   101     1
   95   102     1
   96    99     1
   96   100     1
   97    99     1
   97   100     1
   98   103     1
   98   104     1
   98   105     1
   99   101     1
   99   102     1
  100   106     1
  100   107     1
  100   108     1
  101   103     1
  101   104     1
  101   105     1
  102   109     1
  102   110     1
  102   111     1
  103   106     1
  103   107     1
  103   108     1
  104   106     1
  104   107     1
  104   108     1
  105   112     1
  105   113     1
  105   114     1
  106   109     1
  106   110     1
  106   111     1
  107   109     1
  107   110     1
  107   111     1
  108   115     1
  108   116     1
  108   117     1
  109   112     1
  109   113     1
  109   114     1
  110   112     1
  110   113     1
  110   114     1
  111   118     1
  111   119     1
  111   120     1
  112   115     1
  112   116     1
  112   117     1
  113   115     1
  113   116     1
  113   117     1
  114   121     1
  114   122     1
  114   123     1
  115   118     1
  115   119     1
  115   120     1
  116   118     1
  116   119     1
  116   120     1
  117   124     1
  117   125     1
  117   126     1
  118   121     1
  118   122     1
  118   123     1
  119   121     1
  119   122     1
  119   123     1
  121   124     1
  121   125     1
  121   126     1
  122   124     1
  122   125     1
  122   126     1

[ angles ] 
; ai	aj	ak	funct	th0	cth	S0	Kub
    2     1     6     5
    2     1    10     5
    6     1    10     5
    1     2     3     5
    1     2     4     5
    1     2     5     5
    3     2     4     5
    3     2     5     5
    4     2     5     5
    1     6     7     5
    1     6     8     5
    1     6     9     5
    7     6     8     5
    7     6     9     5
    8     6     9     5
    1    10    11     5
    1    10    12     5
    1    10    15     5
   11    10    12     5
   11    10    15     5
   12    10    15     5
   15    13    20     5
   17    14    20     5
   10    15    13     5
   10    15    16     5
   10    15    17     5
   13    15    16     5
   13    15    17     5
   16    15    17     5
   14    17    15     5
   14    17    18     5
   14    17    19     5
   15    17    18     5
   15    17    19     5
   18    17    19     5
   13    20    14     5
   13    20    21     5
   13    20    74     5
   14    20    21     5
   14    20    74     5
   21    20    74     5
   20    21    22     5
   20    21    23     5
   20    21    24     5
   22    21    23     5
   22    21    24     5
   23    21    24     5
   21    24    25     5
   21    24    26     5
   21    24    27     5
   25    24    26     5
   25    24    27     5
   26    24    27     5
   24    27    28     5
   24    27    29     5
   24    27    30     5
   28    27    29     5
   28    27    30     5
   29    27    30     5
   27    30    31     5
   27    30    32     5
   27    30    33     5
   31    30    32     5
   31    30    33     5
   32    30    33     5
   30    33    34     5
   30    33    35     5
   30    33    36     5
   34    33    35     5
   34    33    36     5
   35    33    36     5
   33    36    37     5
   33    36    38     5
   33    36    39     5
   37    36    38     5
   37    36    39     5
   38    36    39     5
   36    39    40     5
   36    39    41     5
   36    39    42     5
   40    39    41     5
   40    39    42     5
   41    39    42     5
   39    42    43     5
   39    42    44     5
   39    42    45     5
   43    42    44     5
   43    42    45     5
   44    42    45     5
   42    45    46     5
   42    45    47     5
   46    45    47     5
   45    47    48     5
   45    47    49     5
   48    47    49     5
   47    49    50     5
   47    49    51     5
   47    49    52     5
   50    49    51     5
   50    49    52     5
   51    49    52     5
   49    52    53     5
   49    52    54     5
   49    52    55     5
   53    52    54     5
   53    52    55     5
   54    52    55     5
   52    55    56     5
   52    55    57     5
   52    55    58     5
   56    55    57     5
   56    55    58     5
   57    55    58     5
   55    58    59     5
   55    58    60     5
   55    58    61     5
   59    58    60     5
   59    58    61     5
   60    58    61     5
   58    61    62     5
   58    61    63     5
   58    61    64     5
   62    61    63     5
   62    61    64     5
   63    61    64     5
   61    64    65     5
   61    64    66     5
   61    64    67     5
   65    64    66     5
   65    64    67     5
   66    64    67     5
   64    67    68     5
   64    67    69     5
   64    67    70     5
   68    67    69     5
   68    67    70     5
   69    67    70     5
   67    70    71     5
   67    70    72     5
   67    70    73     5
   71    70    72     5
   71    70    73     5
   72    70    73     5
   20    74    75     5
   20    74    76     5
   20    74    77     5
   75    74    76     5
   75    74    77     5
   76    74    77     5
   74    77    78     5
   74    77    79     5
   74    77    80     5
   78    77    79     5
   78    77    80     5
   79    77    80     5
   77    80    81     5
   77    80    82     5
   77    80    83     5
   81    80    82     5
   81    80    83     5
   82    80    83     5
   80    83    84     5
   80    83    85     5
   80    83    86     5
   84    83    85     5
   84    83    86     5
   85    83    86     5
   83    86    87     5
   83    86    88     5
   83    86    89     5
   87    86    88     5
   87    86    89     5
   88    86    89     5
   86    89    90     5
   86    89    91     5
   86    89    92     5
   90    89    91     5
   90    89    92     5
   91    89    92     5
   89    92    93     5
   89    92    94     5
   89    92    95     5
   93    92    94     5
   93    92    95     5
   94    92    95     5
   92    95    96     5
   92    95    97     5
   92    95    98     5
   96    95    97     5
   96    95    98     5
   97    95    98     5
   95    98    99     5
   95    98   100     5
   99    98   100     5
   98   100   101     5
   98   100   102     5
  101   100   102     5
  100   102   103     5
  100   102   104     5
  100   102   105     5
  103   102   104     5
  103   102   105     5
  104   102   105     5
  102   105   106     5
  102   105   107     5
  102   105   108     5
  106   105   107     5
  106   105   108     5
  107   105   108     5
  105   108   109     5
  105   108   110     5
  105   108   111     5
  109   108   110     5
  109   108   111     5
  110   108   111     5
  108   111   112     5
  108   111   113     5
  108   111   114     5
  112   111   113     5
  112   111   114     5
  113   111   114     5
  111   114   115     5
  111   114   116     5
  111   114   117     5
  115   114   116     5
  115   114   117     5
  116   114   117     5
  114   117   118     5
  114   117   119     5
  114   117   120     5
  118   117   119     5
  118   117   120     5
  119   117   120     5
  117   120   121     5
  117   120   122     5
  117   120   123     5
  121   120   122     5
  121   120   123     5
  122   120   123     5
  120   123   124     5
  120   123   125     5
  120   123   126     5
  124   123   125     5
  124   123   126     5
  125   123   126     5

[ dihedrals ]
; ai	aj	ak	al	funct	phi0	cp	mult
    2     1     6     7     9
    2     1     6     8     9
    2     1     6     9     9
    2     1    10    11     9
    2     1    10    12     9
    2     1    10    15     9
    6     1    10    11     9
    6     1    10    12     9
    6     1    10    15     9
    3     2     1     6     9
    3     2     1    10     9
    4     2     1     6     9
    4     2     1    10     9
    5     2     1     6     9
    5     2     1    10     9
    7     6     1    10     9
    8     6     1    10     9
    9     6     1    10     9
    1    10    15    13     9
    1    10    15    16     9
    1    10    15    17     9
   11    10    15    13     9
   11    10    15    16     9
   11    10    15    17     9
   12    10    15    13     9
   12    10    15    16     9
   12    10    15    17     9
   15    13    20    21     9
   15    13    20    74     9
   17    14    20    21     9
   17    14    20    74     9
   10    15    13    20     9
   16    15    13    20     9
   17    15    13    20     9
   10    15    17    14     9
   10    15    17    18     9
   10    15    17    19     9
   13    15    17    14     9
   13    15    17    18     9
   13    15    17    19     9
   16    15    17    18     9
   16    15    17    19     9
   15    17    14    20     9
   18    17    14    20     9
   19    17    14    20     9
   14    17    15    16     9
   14    20    13    15     9
   13    20    14    17     9
   13    20    21    22     9
   13    20    21    23     9
   13    20    21    24     9
   14    20    21    22     9
   14    20    21    23     9
   14    20    21    24     9
   13    20    74    75     9
   13    20    74    76     9
   13    20    74    77     9
   14    20    74    75     9
   14    20    74    76     9
   14    20    74    77     9
   21    20    74    75     9
   21    20    74    76     9
   21    20    74    77     9
   22    21    20    74     9
   23    21    20    74     9
   24    21    20    74     9
   20    21    24    25     9
   20    21    24    26     9
   20    21    24    27     9
   22    21    24    25     9
   22    21    24    26     9
   22    21    24    27     9
   23    21    24    25     9
   23    21    24    26     9
   23    21    24    27     9
   21    24    27    28     9
   21    24    27    29     9
   21    24    27    30     9
   25    24    27    28     9
   25    24    27    29     9
   25    24    27    30     9
   26    24    27    28     9
   26    24    27    29     9
   26    24    27    30     9
   24    27    30    31     9
   24    27    30    32     9
   24    27    30    33     9
   28    27    30    31     9
   28    27    30    32     9
   28    27    30    33     9
   29    27    30    31     9
   29    27    30    32     9
   29    27    30    33     9
   27    30    33    34     9
   27    30    33    35     9
   27    30    33    36     9
   31    30    33    34     9
   31    30    33    35     9
   31    30    33    36     9
   32    30    33    34     9
   32    30    33    35     9
   32    30    33    36     9
   30    33    36    37     9
   30    33    36    38     9
   30    33    36    39     9
   34    33    36    37     9
   34    33    36    38     9
   34    33    36    39     9
   35    33    36    37     9
   35    33    36    38     9
   35    33    36    39     9
   33    36    39    40     9
   33    36    39    41     9
   33    36    39    42     9
   37    36    39    40     9
   37    36    39    41     9
   37    36    39    42     9
   38    36    39    40     9
   38    36    39    41     9
   38    36    39    42     9
   36    39    42    43     9
   36    39    42    44     9
   36    39    42    45     9
   40    39    42    43     9
   40    39    42    44     9
   40    39    42    45     9
   41    39    42    43     9
   41    39    42    44     9
   41    39    42    45     9
   39    42    45    46     9
   39    42    45    47     9
   43    42    45    46     9
   43    42    45    47     9
   44    42    45    46     9
   44    42    45    47     9
   42    45    47    48     9
   42    45    47    49     9
   46    45    47    48     9
   46    45    47    49     9
   45    47    49    50     9
   45    47    49    51     9
   45    47    49    52     9
   48    47    49    50     9
   48    47    49    51     9
   48    47    49    52     9
   47    49    52    53     9
   47    49    52    54     9
   47    49    52    55     9
   50    49    52    53     9
   50    49    52    54     9
   50    49    52    55     9
   51    49    52    53     9
   51    49    52    54     9
   51    49    52    55     9
   49    52    55    56     9
   49    52    55    57     9
   49    52    55    58     9
   53    52    55    56     9
   53    52    55    57     9
   53    52    55    58     9
   54    52    55    56     9
   54    52    55    57     9
   54    52    55    58     9
   52    55    58    59     9
   52    55    58    60     9
   52    55    58    61     9
   56    55    58    59     9
   56    55    58    60     9
   56    55    58    61     9
   57    55    58    59     9
   57    55    58    60     9
   57    55    58    61     9
   55    58    61    62     9
   55    58    61    63     9
   55    58    61    64     9
   59    58    61    62     9
   59    58    61    63     9
   59    58    61    64     9
   60    58    61    62     9
   60    58    61    63     9
   60    58    61    64     9
   58    61    64    65     9
   58    61    64    66     9
   58    61    64    67     9
   62    61    64    65     9
   62    61    64    66     9
   62    61    64    67     9
   63    61    64    65     9
   63    61    64    66     9
   63    61    64    67     9
   61    64    67    68     9
   61    64    67    69     9
   61    64    67    70     9
   65    64    67    68     9
   65    64    67    69     9
   65    64    67    70     9
   66    64    67    68     9
   66    64    67    69     9
   66    64    67    70     9
   64    67    70    71     9
   64    67    70    72     9
   64    67    70    73     9
   68    67    70    71     9
   68    67    70    72     9
   68    67    70    73     9
   69    67    70    71     9
   69    67    70    72     9
   69    67    70    73     9
   20    74    77    78     9
   20    74    77    79     9
   20    74    77    80     9
   75    74    77    78     9
   75    74    77    79     9
   75    74    77    80     9
   76    74    77    78     9
   76    74    77    79     9
   76    74    77    80     9
   74    77    80    81     9
   74    77    80    82     9
   74    77    80    83     9
   78    77    80    81     9
   78    77    80    82     9
   78    77    80    83     9
   79    77    80    81     9
   79    77    80    82     9
   79    77    80    83     9
   77    80    83    84     9
   77    80    83    85     9
   77    80    83    86     9
   81    80    83    84     9
   81    80    83    85     9
   81    80    83    86     9
   82    80    83    84     9
   82    80    83    85     9
   82    80    83    86     9
   80    83    86    87     9
   80    83    86    88     9
   80    83    86    89     9
   84    83    86    87     9
   84    83    86    88     9
   84    83    86    89     9
   85    83    86    87     9
   85    83    86    88     9
   85    83    86    89     9
   83    86    89    90     9
   83    86    89    91     9
   83    86    89    92     9
   87    86    89    90     9
   87    86    89    91     9
   87    86    89    92     9
   88    86    89    90     9
   88    86    89    91     9
   88    86    89    92     9
   86    89    92    93     9
   86    89    92    94     9
   86    89    92    95     9
   90    89    92    93     9
   90    89    92    94     9
   90    89    92    95     9
   91    89    92    93     9
   91    89    92    94     9
   91    89    92    95     9
   89    92    95    96     9
   89    92    95    97     9
   89    92    95    98     9
   93    92    95    96     9
   93    92    95    97     9
   93    92    95    98     9
   94    92    95    96     9
   94    92    95    97     9
   94    92    95    98     9
   92    95    98    99     9
   92    95    98   100     9
   96    95    98    99     9
   96    95    98   100     9
   97    95    98    99     9
   97    95    98   100     9
   95    98   100   101     9
   95    98   100   102     9
   99    98   100   101     9
   99    98   100   102     9
   98   100   102   103     9
   98   100   102   104     9
   98   100   102   105     9
  101   100   102   103     9
  101   100   102   104     9
  101   100   102   105     9
  100   102   105   106     9
  100   102   105   107     9
  100   102   105   108     9
  103   102   105   106     9
  103   102   105   107     9
  103   102   105   108     9
  104   102   105   106     9
  104   102   105   107     9
  104   102   105   108     9
  102   105   108   109     9
  102   105   108   110     9
  102   105   108   111     9
  106   105   108   109     9
  106   105   108   110     9
  106   105   108   111     9
  107   105   108   109     9
  107   105   108   110     9
  107   105   108   111     9
  105   108   111   112     9
  105   108   111   113     9
  105   108   111   114     9
  109   108   111   112     9
  109   108   111   113     9
  109   108   111   114     9
  110   108   111   112     9
  110   108   111   113     9
  110   108   111   114     9
  108   111   114   115     9
  108   111   114   116     9
  108   111   114   117     9
  112   111   114   115     9
  112   111   114   116     9
  112   111   114   117     9
  113   111   114   115     9
  113   111   114   116     9
  113   111   114   117     9
  111   114   117   118     9
  111   114   117   119     9
  111   114   117   120     9
  115   114   117   118     9
  115   114   117   119     9
  115   114   117   120     9
  116   114   117   118     9
  116   114   117   119     9
  116   114   117   120     9
  114   117   120   121     9
  114   117   120   122     9
  114   117   120   123     9
  118   117   120   121     9
  118   117   120   122     9
  118   117   120   123     9
  119   117   120   121     9
  119   117   120   122     9
  119   117   120   123     9
  117   120   123   124     9
  117   120   123   125     9
  117   120   123   126     9
  121   120   123   124     9
  121   120   123   125     9
  121   120   123   126     9
  122   120   123   124     9
  122   120   123   125     9
  122   120   123   126     9

#ifdef POSRES
[ position_restraints ]
    1     1     0.0             0.0            POSRES_FC_LIPID
#endif

#ifdef DIHRES
[ dihedral_restraints ]
   42    45    47    49     1      0.0      0.0       DIHRES_FC
   95    98   100   102     1      0.0      0.0       DIHRES_FC
#endif
