;;
;; Generated by CHARMM-GUI FF-Converter
;;
;; Correspondance:
;; jul316@lehigh.edu or wonpil@lehigh.edu
;;
;; GROMACS topology file for DPDAP
;;


[ moleculetype ]
; name	nrexcl
DPDAP	     3

[ atoms ]
; nr	type	resnr	residu	atom	cgnr	charge	mass
     1      NG301     90    DPDAP     N1      1    -0.630000    14.0070   ; qtot -0.630
     2     CG3AM0     90    DPDAP    CN1      2    -0.060000    12.0110   ; qtot -0.690
     3     HGAAM0     90    DPDAP   HN11      3     0.090000     1.0080   ; qtot -0.600
     4     HGAAM0     90    DPDAP   HN12      4     0.090000     1.0080   ; qtot -0.510
     5     HGAAM0     90    DPDAP   HN13      5     0.090000     1.0080   ; qtot -0.420
     6     CG3AM0     90    DPDAP    CN2      6    -0.060000    12.0110   ; qtot -0.480
     7     HGAAM0     90    DPDAP   HN21      7     0.090000     1.0080   ; qtot -0.390
     8     HGAAM0     90    DPDAP   HN22      8     0.090000     1.0080   ; qtot -0.300
     9     HGAAM0     90    DPDAP   HN23      9     0.090000     1.0080   ; qtot -0.210
    10      CG321     90    DPDAP     C1     10     0.030000    12.0110   ; qtot -0.180
    11       HGA2     90    DPDAP    H11     11     0.090000     1.0080   ; qtot -0.090
    12       HGA2     90    DPDAP    H12     12     0.090000     1.0080   ; qtot -0.000
    13       CTL1     90    DPDAP     C2     13     0.170000    12.0110   ; qtot  0.170
    14       HAL1     90    DPDAP     HS     14     0.090000     1.0080   ; qtot  0.260
    15        OSL     90    DPDAP    O21     15    -0.490000    15.9994   ; qtot -0.230
    16         CL     90    DPDAP    C21     16     0.900000    12.0110   ; qtot  0.670
    17        OBL     90    DPDAP    O22     17    -0.630000    15.9994   ; qtot  0.040
    18       CTL2     90    DPDAP    C22     18    -0.220000    12.0110   ; qtot -0.180
    19       HAL2     90    DPDAP    H2R     19     0.090000     1.0080   ; qtot -0.090
    20       HAL2     90    DPDAP    H2S     20     0.090000     1.0080   ; qtot -0.000
    21       CTL2     90    DPDAP     C3     21     0.080000    12.0110   ; qtot  0.080
    22       HAL2     90    DPDAP     HX     22     0.090000     1.0080   ; qtot  0.170
    23       HAL2     90    DPDAP     HY     23     0.090000     1.0080   ; qtot  0.260
    24        OSL     90    DPDAP    O31     24    -0.490000    15.9994   ; qtot -0.230
    25         CL     90    DPDAP    C31     25     0.900000    12.0110   ; qtot  0.670
    26        OBL     90    DPDAP    O32     26    -0.630000    15.9994   ; qtot  0.040
    27       CTL2     90    DPDAP    C32     27    -0.220000    12.0110   ; qtot -0.180
    28       HAL2     90    DPDAP    H2X     28     0.090000     1.0080   ; qtot -0.090
    29       HAL2     90    DPDAP    H2Y     29     0.090000     1.0080   ; qtot -0.000
    30       CTL2     90    DPDAP    C23     30    -0.180000    12.0110   ; qtot -0.180
    31       HAL2     90    DPDAP    H3R     31     0.090000     1.0080   ; qtot -0.090
    32       HAL2     90    DPDAP    H3S     32     0.090000     1.0080   ; qtot -0.000
    33       CTL2     90    DPDAP    C24     33    -0.180000    12.0110   ; qtot -0.180
    34       HAL2     90    DPDAP    H4R     34     0.090000     1.0080   ; qtot -0.090
    35       HAL2     90    DPDAP    H4S     35     0.090000     1.0080   ; qtot -0.000
    36       CTL2     90    DPDAP    C25     36    -0.180000    12.0110   ; qtot -0.180
    37       HAL2     90    DPDAP    H5R     37     0.090000     1.0080   ; qtot -0.090
    38       HAL2     90    DPDAP    H5S     38     0.090000     1.0080   ; qtot -0.000
    39       CTL2     90    DPDAP    C26     39    -0.180000    12.0110   ; qtot -0.180
    40       HAL2     90    DPDAP    H6R     40     0.090000     1.0080   ; qtot -0.090
    41       HAL2     90    DPDAP    H6S     41     0.090000     1.0080   ; qtot -0.000
    42       CTL2     90    DPDAP    C27     42    -0.180000    12.0110   ; qtot -0.180
    43       HAL2     90    DPDAP    H7R     43     0.090000     1.0080   ; qtot -0.090
    44       HAL2     90    DPDAP    H7S     44     0.090000     1.0080   ; qtot -0.000
    45       CTL2     90    DPDAP    C28     45    -0.180000    12.0110   ; qtot -0.180
    46       HAL2     90    DPDAP    H8R     46     0.090000     1.0080   ; qtot -0.090
    47       HAL2     90    DPDAP    H8S     47     0.090000     1.0080   ; qtot -0.000
    48       CTL2     90    DPDAP    C29     48    -0.180000    12.0110   ; qtot -0.180
    49       HAL2     90    DPDAP    H9R     49     0.090000     1.0080   ; qtot -0.090
    50       HAL2     90    DPDAP    H9S     50     0.090000     1.0080   ; qtot -0.000
    51       CTL2     90    DPDAP   C210     51    -0.180000    12.0110   ; qtot -0.180
    52       HAL2     90    DPDAP   H10R     52     0.090000     1.0080   ; qtot -0.090
    53       HAL2     90    DPDAP   H10S     53     0.090000     1.0080   ; qtot -0.000
    54       CTL2     90    DPDAP   C211     54    -0.180000    12.0110   ; qtot -0.180
    55       HAL2     90    DPDAP   H11R     55     0.090000     1.0080   ; qtot -0.090
    56       HAL2     90    DPDAP   H11S     56     0.090000     1.0080   ; qtot -0.000
    57       CTL2     90    DPDAP   C212     57    -0.180000    12.0110   ; qtot -0.180
    58       HAL2     90    DPDAP   H12R     58     0.090000     1.0080   ; qtot -0.090
    59       HAL2     90    DPDAP   H12S     59     0.090000     1.0080   ; qtot -0.000
    60       CTL2     90    DPDAP   C213     60    -0.180000    12.0110   ; qtot -0.180
    61       HAL2     90    DPDAP   H13R     61     0.090000     1.0080   ; qtot -0.090
    62       HAL2     90    DPDAP   H13S     62     0.090000     1.0080   ; qtot -0.000
    63       CTL2     90    DPDAP   C214     63    -0.180000    12.0110   ; qtot -0.180
    64       HAL2     90    DPDAP   H14R     64     0.090000     1.0080   ; qtot -0.090
    65       HAL2     90    DPDAP   H14S     65     0.090000     1.0080   ; qtot -0.000
    66       CTL2     90    DPDAP   C215     66    -0.180000    12.0110   ; qtot -0.180
    67       HAL2     90    DPDAP   H15R     67     0.090000     1.0080   ; qtot -0.090
    68       HAL2     90    DPDAP   H15S     68     0.090000     1.0080   ; qtot -0.000
    69       CTL3     90    DPDAP   C216     69    -0.270000    12.0110   ; qtot -0.270
    70       HAL3     90    DPDAP   H16R     70     0.090000     1.0080   ; qtot -0.180
    71       HAL3     90    DPDAP   H16S     71     0.090000     1.0080   ; qtot -0.090
    72       HAL3     90    DPDAP   H16T     72     0.090000     1.0080   ; qtot -0.000
    73       CTL2     90    DPDAP    C33     73    -0.180000    12.0110   ; qtot -0.180
    74       HAL2     90    DPDAP    H3X     74     0.090000     1.0080   ; qtot -0.090
    75       HAL2     90    DPDAP    H3Y     75     0.090000     1.0080   ; qtot -0.000
    76       CTL2     90    DPDAP    C34     76    -0.180000    12.0110   ; qtot -0.180
    77       HAL2     90    DPDAP    H4X     77     0.090000     1.0080   ; qtot -0.090
    78       HAL2     90    DPDAP    H4Y     78     0.090000     1.0080   ; qtot -0.000
    79       CTL2     90    DPDAP    C35     79    -0.180000    12.0110   ; qtot -0.180
    80       HAL2     90    DPDAP    H5X     80     0.090000     1.0080   ; qtot -0.090
    81       HAL2     90    DPDAP    H5Y     81     0.090000     1.0080   ; qtot -0.000
    82       CTL2     90    DPDAP    C36     82    -0.180000    12.0110   ; qtot -0.180
    83       HAL2     90    DPDAP    H6X     83     0.090000     1.0080   ; qtot -0.090
    84       HAL2     90    DPDAP    H6Y     84     0.090000     1.0080   ; qtot -0.000
    85       CTL2     90    DPDAP    C37     85    -0.180000    12.0110   ; qtot -0.180
    86       HAL2     90    DPDAP    H7X     86     0.090000     1.0080   ; qtot -0.090
    87       HAL2     90    DPDAP    H7Y     87     0.090000     1.0080   ; qtot -0.000
    88       CTL2     90    DPDAP    C38     88    -0.180000    12.0110   ; qtot -0.180
    89       HAL2     90    DPDAP    H8X     89     0.090000     1.0080   ; qtot -0.090
    90       HAL2     90    DPDAP    H8Y     90     0.090000     1.0080   ; qtot -0.000
    91       CTL2     90    DPDAP    C39     91    -0.180000    12.0110   ; qtot -0.180
    92       HAL2     90    DPDAP    H9X     92     0.090000     1.0080   ; qtot -0.090
    93       HAL2     90    DPDAP    H9Y     93     0.090000     1.0080   ; qtot -0.000
    94       CTL2     90    DPDAP   C310     94    -0.180000    12.0110   ; qtot -0.180
    95       HAL2     90    DPDAP   H10X     95     0.090000     1.0080   ; qtot -0.090
    96       HAL2     90    DPDAP   H10Y     96     0.090000     1.0080   ; qtot -0.000
    97       CTL2     90    DPDAP   C311     97    -0.180000    12.0110   ; qtot -0.180
    98       HAL2     90    DPDAP   H11X     98     0.090000     1.0080   ; qtot -0.090
    99       HAL2     90    DPDAP   H11Y     99     0.090000     1.0080   ; qtot -0.000
   100       CTL2     90    DPDAP   C312    100    -0.180000    12.0110   ; qtot -0.180
   101       HAL2     90    DPDAP   H12X    101     0.090000     1.0080   ; qtot -0.090
   102       HAL2     90    DPDAP   H12Y    102     0.090000     1.0080   ; qtot -0.000
   103       CTL2     90    DPDAP   C313    103    -0.180000    12.0110   ; qtot -0.180
   104       HAL2     90    DPDAP   H13X    104     0.090000     1.0080   ; qtot -0.090
   105       HAL2     90    DPDAP   H13Y    105     0.090000     1.0080   ; qtot -0.000
   106       CTL2     90    DPDAP   C314    106    -0.180000    12.0110   ; qtot -0.180
   107       HAL2     90    DPDAP   H14X    107     0.090000     1.0080   ; qtot -0.090
   108       HAL2     90    DPDAP   H14Y    108     0.090000     1.0080   ; qtot -0.000
   109       CTL2     90    DPDAP   C315    109    -0.180000    12.0110   ; qtot -0.180
   110       HAL2     90    DPDAP   H15X    110     0.090000     1.0080   ; qtot -0.090
   111       HAL2     90    DPDAP   H15Y    111     0.090000     1.0080   ; qtot -0.000
   112       CTL3     90    DPDAP   C316    112    -0.270000    12.0110   ; qtot -0.270
   113       HAL3     90    DPDAP   H16X    113     0.090000     1.0080   ; qtot -0.180
   114       HAL3     90    DPDAP   H16Y    114     0.090000     1.0080   ; qtot -0.090
   115       HAL3     90    DPDAP   H16Z    115     0.090000     1.0080   ; qtot -0.000

[ bonds ]
; ai	aj	funct	b0	Kb
    1     2     1
    1     6     1
    1    10     1
    2     3     1
    2     4     1
    2     5     1
    6     7     1
    6     8     1
    6     9     1
   10    11     1
   10    12     1
   10    13     1
   13    14     1
   13    15     1
   13    21     1
   15    16     1
   16    17     1
   16    18     1
   18    19     1
   18    20     1
   18    30     1
   21    22     1
   21    23     1
   21    24     1
   24    25     1
   25    26     1
   25    27     1
   27    28     1
   27    29     1
   27    73     1
   30    31     1
   30    32     1
   30    33     1
   33    34     1
   33    35     1
   33    36     1
   36    37     1
   36    38     1
   36    39     1
   39    40     1
   39    41     1
   39    42     1
   42    43     1
   42    44     1
   42    45     1
   45    46     1
   45    47     1
   45    48     1
   48    49     1
   48    50     1
   48    51     1
   51    52     1
   51    53     1
   51    54     1
   54    55     1
   54    56     1
   54    57     1
   57    58     1
   57    59     1
   57    60     1
   60    61     1
   60    62     1
   60    63     1
   63    64     1
   63    65     1
   63    66     1
   66    67     1
   66    68     1
   66    69     1
   69    70     1
   69    71     1
   69    72     1
   73    74     1
   73    75     1
   73    76     1
   76    77     1
   76    78     1
   76    79     1
   79    80     1
   79    81     1
   79    82     1
   82    83     1
   82    84     1
   82    85     1
   85    86     1
   85    87     1
   85    88     1
   88    89     1
   88    90     1
   88    91     1
   91    92     1
   91    93     1
   91    94     1
   94    95     1
   94    96     1
   94    97     1
   97    98     1
   97    99     1
   97   100     1
  100   101     1
  100   102     1
  100   103     1
  103   104     1
  103   105     1
  103   106     1
  106   107     1
  106   108     1
  106   109     1
  109   110     1
  109   111     1
  109   112     1
  112   113     1
  112   114     1
  112   115     1

[ pairs ]
; ai	aj	funct	c6	c12 or
; ai	aj	funct	fudgeQQ	q1	q2	c6	c12
    1    14     1
    1    15     1
    1    21     1
    2     7     1
    2     8     1
    2     9     1
    2    11     1
    2    12     1
    2    13     1
    3     6     1
    3    10     1
    4     6     1
    4    10     1
    5     6     1
    5    10     1
    6    11     1
    6    12     1
    6    13     1
    7    10     1
    8    10     1
    9    10     1
   10    16     1
   10    22     1
   10    23     1
   10    24     1
   11    14     1
   11    15     1
   11    21     1
   12    14     1
   12    15     1
   12    21     1
   13    17     1
   13    18     1
   13    25     1
   14    16     1
   14    22     1
   14    23     1
   14    24     1
   15    19     1
   15    20     1
   15    22     1
   15    23     1
   15    24     1
   15    30     1
   16    21     1
   16    31     1
   16    32     1
   16    33     1
   17    19     1
   17    20     1
   17    30     1
   18    34     1
   18    35     1
   18    36     1
   19    31     1
   19    32     1
   19    33     1
   20    31     1
   20    32     1
   20    33     1
   21    26     1
   21    27     1
   22    25     1
   23    25     1
   24    28     1
   24    29     1
   24    73     1
   25    74     1
   25    75     1
   25    76     1
   26    28     1
   26    29     1
   26    73     1
   27    77     1
   27    78     1
   27    79     1
   28    74     1
   28    75     1
   28    76     1
   29    74     1
   29    75     1
   29    76     1
   30    37     1
   30    38     1
   30    39     1
   31    34     1
   31    35     1
   31    36     1
   32    34     1
   32    35     1
   32    36     1
   33    40     1
   33    41     1
   33    42     1
   34    37     1
   34    38     1
   34    39     1
   35    37     1
   35    38     1
   35    39     1
   36    43     1
   36    44     1
   36    45     1
   37    40     1
   37    41     1
   37    42     1
   38    40     1
   38    41     1
   38    42     1
   39    46     1
   39    47     1
   39    48     1
   40    43     1
   40    44     1
   40    45     1
   41    43     1
   41    44     1
   41    45     1
   42    49     1
   42    50     1
   42    51     1
   43    46     1
   43    47     1
   43    48     1
   44    46     1
   44    47     1
   44    48     1
   45    52     1
   45    53     1
   45    54     1
   46    49     1
   46    50     1
   46    51     1
   47    49     1
   47    50     1
   47    51     1
   48    55     1
   48    56     1
   48    57     1
   49    52     1
   49    53     1
   49    54     1
   50    52     1
   50    53     1
   50    54     1
   51    58     1
   51    59     1
   51    60     1
   52    55     1
   52    56     1
   52    57     1
   53    55     1
   53    56     1
   53    57     1
   54    61     1
   54    62     1
   54    63     1
   55    58     1
   55    59     1
   55    60     1
   56    58     1
   56    59     1
   56    60     1
   57    64     1
   57    65     1
   57    66     1
   58    61     1
   58    62     1
   58    63     1
   59    61     1
   59    62     1
   59    63     1
   60    67     1
   60    68     1
   60    69     1
   61    64     1
   61    65     1
   61    66     1
   62    64     1
   62    65     1
   62    66     1
   63    70     1
   63    71     1
   63    72     1
   64    67     1
   64    68     1
   64    69     1
   65    67     1
   65    68     1
   65    69     1
   67    70     1
   67    71     1
   67    72     1
   68    70     1
   68    71     1
   68    72     1
   73    80     1
   73    81     1
   73    82     1
   74    77     1
   74    78     1
   74    79     1
   75    77     1
   75    78     1
   75    79     1
   76    83     1
   76    84     1
   76    85     1
   77    80     1
   77    81     1
   77    82     1
   78    80     1
   78    81     1
   78    82     1
   79    86     1
   79    87     1
   79    88     1
   80    83     1
   80    84     1
   80    85     1
   81    83     1
   81    84     1
   81    85     1
   82    89     1
   82    90     1
   82    91     1
   83    86     1
   83    87     1
   83    88     1
   84    86     1
   84    87     1
   84    88     1
   85    92     1
   85    93     1
   85    94     1
   86    89     1
   86    90     1
   86    91     1
   87    89     1
   87    90     1
   87    91     1
   88    95     1
   88    96     1
   88    97     1
   89    92     1
   89    93     1
   89    94     1
   90    92     1
   90    93     1
   90    94     1
   91    98     1
   91    99     1
   91   100     1
   92    95     1
   92    96     1
   92    97     1
   93    95     1
   93    96     1
   93    97     1
   94   101     1
   94   102     1
   94   103     1
   95    98     1
   95    99     1
   95   100     1
   96    98     1
   96    99     1
   96   100     1
   97   104     1
   97   105     1
   97   106     1
   98   101     1
   98   102     1
   98   103     1
   99   101     1
   99   102     1
   99   103     1
  100   107     1
  100   108     1
  100   109     1
  101   104     1
  101   105     1
  101   106     1
  102   104     1
  102   105     1
  102   106     1
  103   110     1
  103   111     1
  103   112     1
  104   107     1
  104   108     1
  104   109     1
  105   107     1
  105   108     1
  105   109     1
  106   113     1
  106   114     1
  106   115     1
  107   110     1
  107   111     1
  107   112     1
  108   110     1
  108   111     1
  108   112     1
  110   113     1
  110   114     1
  110   115     1
  111   113     1
  111   114     1
  111   115     1

[ angles ] 
; ai	aj	ak	funct	th0	cth	S0	Kub
    2     1     6     5
    2     1    10     5
    6     1    10     5
    1     2     3     5
    1     2     4     5
    1     2     5     5
    3     2     4     5
    3     2     5     5
    4     2     5     5
    1     6     7     5
    1     6     8     5
    1     6     9     5
    7     6     8     5
    7     6     9     5
    8     6     9     5
    1    10    11     5
    1    10    12     5
    1    10    13     5
   11    10    12     5
   11    10    13     5
   12    10    13     5
   10    13    14     5
   10    13    15     5
   10    13    21     5
   14    13    15     5
   14    13    21     5
   15    13    21     5
   13    15    16     5
   15    16    17     5
   15    16    18     5
   17    16    18     5
   16    18    19     5
   16    18    20     5
   16    18    30     5
   19    18    20     5
   19    18    30     5
   20    18    30     5
   13    21    22     5
   13    21    23     5
   13    21    24     5
   22    21    23     5
   22    21    24     5
   23    21    24     5
   21    24    25     5
   24    25    26     5
   24    25    27     5
   26    25    27     5
   25    27    28     5
   25    27    29     5
   25    27    73     5
   28    27    29     5
   28    27    73     5
   29    27    73     5
   18    30    31     5
   18    30    32     5
   18    30    33     5
   31    30    32     5
   31    30    33     5
   32    30    33     5
   30    33    34     5
   30    33    35     5
   30    33    36     5
   34    33    35     5
   34    33    36     5
   35    33    36     5
   33    36    37     5
   33    36    38     5
   33    36    39     5
   37    36    38     5
   37    36    39     5
   38    36    39     5
   36    39    40     5
   36    39    41     5
   36    39    42     5
   40    39    41     5
   40    39    42     5
   41    39    42     5
   39    42    43     5
   39    42    44     5
   39    42    45     5
   43    42    44     5
   43    42    45     5
   44    42    45     5
   42    45    46     5
   42    45    47     5
   42    45    48     5
   46    45    47     5
   46    45    48     5
   47    45    48     5
   45    48    49     5
   45    48    50     5
   45    48    51     5
   49    48    50     5
   49    48    51     5
   50    48    51     5
   48    51    52     5
   48    51    53     5
   48    51    54     5
   52    51    53     5
   52    51    54     5
   53    51    54     5
   51    54    55     5
   51    54    56     5
   51    54    57     5
   55    54    56     5
   55    54    57     5
   56    54    57     5
   54    57    58     5
   54    57    59     5
   54    57    60     5
   58    57    59     5
   58    57    60     5
   59    57    60     5
   57    60    61     5
   57    60    62     5
   57    60    63     5
   61    60    62     5
   61    60    63     5
   62    60    63     5
   60    63    64     5
   60    63    65     5
   60    63    66     5
   64    63    65     5
   64    63    66     5
   65    63    66     5
   63    66    67     5
   63    66    68     5
   63    66    69     5
   67    66    68     5
   67    66    69     5
   68    66    69     5
   66    69    70     5
   66    69    71     5
   66    69    72     5
   70    69    71     5
   70    69    72     5
   71    69    72     5
   27    73    74     5
   27    73    75     5
   27    73    76     5
   74    73    75     5
   74    73    76     5
   75    73    76     5
   73    76    77     5
   73    76    78     5
   73    76    79     5
   77    76    78     5
   77    76    79     5
   78    76    79     5
   76    79    80     5
   76    79    81     5
   76    79    82     5
   80    79    81     5
   80    79    82     5
   81    79    82     5
   79    82    83     5
   79    82    84     5
   79    82    85     5
   83    82    84     5
   83    82    85     5
   84    82    85     5
   82    85    86     5
   82    85    87     5
   82    85    88     5
   86    85    87     5
   86    85    88     5
   87    85    88     5
   85    88    89     5
   85    88    90     5
   85    88    91     5
   89    88    90     5
   89    88    91     5
   90    88    91     5
   88    91    92     5
   88    91    93     5
   88    91    94     5
   92    91    93     5
   92    91    94     5
   93    91    94     5
   91    94    95     5
   91    94    96     5
   91    94    97     5
   95    94    96     5
   95    94    97     5
   96    94    97     5
   94    97    98     5
   94    97    99     5
   94    97   100     5
   98    97    99     5
   98    97   100     5
   99    97   100     5
   97   100   101     5
   97   100   102     5
   97   100   103     5
  101   100   102     5
  101   100   103     5
  102   100   103     5
  100   103   104     5
  100   103   105     5
  100   103   106     5
  104   103   105     5
  104   103   106     5
  105   103   106     5
  103   106   107     5
  103   106   108     5
  103   106   109     5
  107   106   108     5
  107   106   109     5
  108   106   109     5
  106   109   110     5
  106   109   111     5
  106   109   112     5
  110   109   111     5
  110   109   112     5
  111   109   112     5
  109   112   113     5
  109   112   114     5
  109   112   115     5
  113   112   114     5
  113   112   115     5
  114   112   115     5

[ dihedrals ]
; ai	aj	ak	al	funct	phi0	cp	mult
    2     1     6     7     9
    2     1     6     8     9
    2     1     6     9     9
    2     1    10    11     9
    2     1    10    12     9
    2     1    10    13     9
    6     1    10    11     9
    6     1    10    12     9
    6     1    10    13     9
    3     2     1     6     9
    3     2     1    10     9
    4     2     1     6     9
    4     2     1    10     9
    5     2     1     6     9
    5     2     1    10     9
    7     6     1    10     9
    8     6     1    10     9
    9     6     1    10     9
    1    10    13    14     9
    1    10    13    15     9
    1    10    13    21     9
   11    10    13    14     9
   11    10    13    15     9
   11    10    13    21     9
   12    10    13    14     9
   12    10    13    15     9
   12    10    13    21     9
   10    13    15    16     9
   14    13    15    16     9
   10    13    21    22     9
   10    13    21    23     9
   10    13    21    24     9
   14    13    21    22     9
   14    13    21    23     9
   14    13    21    24     9
   15    13    21    22     9
   15    13    21    23     9
   15    13    21    24     9
   16    15    13    21     9
   13    15    16    17     9
   13    15    16    18     9
   15    16    18    19     9
   15    16    18    20     9
   15    16    18    30     9
   17    16    18    19     9
   17    16    18    20     9
   17    16    18    30     9
   16    18    30    31     9
   16    18    30    32     9
   16    18    30    33     9
   19    18    30    31     9
   19    18    30    32     9
   19    18    30    33     9
   20    18    30    31     9
   20    18    30    32     9
   20    18    30    33     9
   13    21    24    25     9
   22    21    24    25     9
   23    21    24    25     9
   21    24    25    26     9
   21    24    25    27     9
   24    25    27    28     9
   24    25    27    29     9
   24    25    27    73     9
   26    25    27    28     9
   26    25    27    29     9
   26    25    27    73     9
   25    27    73    74     9
   25    27    73    75     9
   25    27    73    76     9
   28    27    73    74     9
   28    27    73    75     9
   28    27    73    76     9
   29    27    73    74     9
   29    27    73    75     9
   29    27    73    76     9
   18    30    33    34     9
   18    30    33    35     9
   18    30    33    36     9
   31    30    33    34     9
   31    30    33    35     9
   31    30    33    36     9
   32    30    33    34     9
   32    30    33    35     9
   32    30    33    36     9
   30    33    36    37     9
   30    33    36    38     9
   30    33    36    39     9
   34    33    36    37     9
   34    33    36    38     9
   34    33    36    39     9
   35    33    36    37     9
   35    33    36    38     9
   35    33    36    39     9
   33    36    39    40     9
   33    36    39    41     9
   33    36    39    42     9
   37    36    39    40     9
   37    36    39    41     9
   37    36    39    42     9
   38    36    39    40     9
   38    36    39    41     9
   38    36    39    42     9
   36    39    42    43     9
   36    39    42    44     9
   36    39    42    45     9
   40    39    42    43     9
   40    39    42    44     9
   40    39    42    45     9
   41    39    42    43     9
   41    39    42    44     9
   41    39    42    45     9
   39    42    45    46     9
   39    42    45    47     9
   39    42    45    48     9
   43    42    45    46     9
   43    42    45    47     9
   43    42    45    48     9
   44    42    45    46     9
   44    42    45    47     9
   44    42    45    48     9
   42    45    48    49     9
   42    45    48    50     9
   42    45    48    51     9
   46    45    48    49     9
   46    45    48    50     9
   46    45    48    51     9
   47    45    48    49     9
   47    45    48    50     9
   47    45    48    51     9
   45    48    51    52     9
   45    48    51    53     9
   45    48    51    54     9
   49    48    51    52     9
   49    48    51    53     9
   49    48    51    54     9
   50    48    51    52     9
   50    48    51    53     9
   50    48    51    54     9
   48    51    54    55     9
   48    51    54    56     9
   48    51    54    57     9
   52    51    54    55     9
   52    51    54    56     9
   52    51    54    57     9
   53    51    54    55     9
   53    51    54    56     9
   53    51    54    57     9
   51    54    57    58     9
   51    54    57    59     9
   51    54    57    60     9
   55    54    57    58     9
   55    54    57    59     9
   55    54    57    60     9
   56    54    57    58     9
   56    54    57    59     9
   56    54    57    60     9
   54    57    60    61     9
   54    57    60    62     9
   54    57    60    63     9
   58    57    60    61     9
   58    57    60    62     9
   58    57    60    63     9
   59    57    60    61     9
   59    57    60    62     9
   59    57    60    63     9
   57    60    63    64     9
   57    60    63    65     9
   57    60    63    66     9
   61    60    63    64     9
   61    60    63    65     9
   61    60    63    66     9
   62    60    63    64     9
   62    60    63    65     9
   62    60    63    66     9
   60    63    66    67     9
   60    63    66    68     9
   60    63    66    69     9
   64    63    66    67     9
   64    63    66    68     9
   64    63    66    69     9
   65    63    66    67     9
   65    63    66    68     9
   65    63    66    69     9
   63    66    69    70     9
   63    66    69    71     9
   63    66    69    72     9
   67    66    69    70     9
   67    66    69    71     9
   67    66    69    72     9
   68    66    69    70     9
   68    66    69    71     9
   68    66    69    72     9
   27    73    76    77     9
   27    73    76    78     9
   27    73    76    79     9
   74    73    76    77     9
   74    73    76    78     9
   74    73    76    79     9
   75    73    76    77     9
   75    73    76    78     9
   75    73    76    79     9
   73    76    79    80     9
   73    76    79    81     9
   73    76    79    82     9
   77    76    79    80     9
   77    76    79    81     9
   77    76    79    82     9
   78    76    79    80     9
   78    76    79    81     9
   78    76    79    82     9
   76    79    82    83     9
   76    79    82    84     9
   76    79    82    85     9
   80    79    82    83     9
   80    79    82    84     9
   80    79    82    85     9
   81    79    82    83     9
   81    79    82    84     9
   81    79    82    85     9
   79    82    85    86     9
   79    82    85    87     9
   79    82    85    88     9
   83    82    85    86     9
   83    82    85    87     9
   83    82    85    88     9
   84    82    85    86     9
   84    82    85    87     9
   84    82    85    88     9
   82    85    88    89     9
   82    85    88    90     9
   82    85    88    91     9
   86    85    88    89     9
   86    85    88    90     9
   86    85    88    91     9
   87    85    88    89     9
   87    85    88    90     9
   87    85    88    91     9
   85    88    91    92     9
   85    88    91    93     9
   85    88    91    94     9
   89    88    91    92     9
   89    88    91    93     9
   89    88    91    94     9
   90    88    91    92     9
   90    88    91    93     9
   90    88    91    94     9
   88    91    94    95     9
   88    91    94    96     9
   88    91    94    97     9
   92    91    94    95     9
   92    91    94    96     9
   92    91    94    97     9
   93    91    94    95     9
   93    91    94    96     9
   93    91    94    97     9
   91    94    97    98     9
   91    94    97    99     9
   91    94    97   100     9
   95    94    97    98     9
   95    94    97    99     9
   95    94    97   100     9
   96    94    97    98     9
   96    94    97    99     9
   96    94    97   100     9
   94    97   100   101     9
   94    97   100   102     9
   94    97   100   103     9
   98    97   100   101     9
   98    97   100   102     9
   98    97   100   103     9
   99    97   100   101     9
   99    97   100   102     9
   99    97   100   103     9
   97   100   103   104     9
   97   100   103   105     9
   97   100   103   106     9
  101   100   103   104     9
  101   100   103   105     9
  101   100   103   106     9
  102   100   103   104     9
  102   100   103   105     9
  102   100   103   106     9
  100   103   106   107     9
  100   103   106   108     9
  100   103   106   109     9
  104   103   106   107     9
  104   103   106   108     9
  104   103   106   109     9
  105   103   106   107     9
  105   103   106   108     9
  105   103   106   109     9
  103   106   109   110     9
  103   106   109   111     9
  103   106   109   112     9
  107   106   109   110     9
  107   106   109   111     9
  107   106   109   112     9
  108   106   109   110     9
  108   106   109   111     9
  108   106   109   112     9
  106   109   112   113     9
  106   109   112   114     9
  106   109   112   115     9
  110   109   112   113     9
  110   109   112   114     9
  110   109   112   115     9
  111   109   112   113     9
  111   109   112   114     9
  111   109   112   115     9

[ dihedrals ]
; ai	aj	ak	al	funct	q0	cq
   16    15    18    17     2
   25    24    27    26     2

#ifdef POSRES
[ position_restraints ]
    1     1     0.0             0.0            POSRES_FC_LIPID
#endif

#ifdef DIHRES
[ dihedral_restraints ]
   10    21    13    15     1   -120.0      2.5       DIHRES_FC
#endif
