;;
;; Generated by CHARMM-GUI FF-Converter
;;
;; Correspondance:
;; jul316@lehigh.edu or wonpil@lehigh.edu
;;
;; GROMACS topology file for DPPGP
;;


[ moleculetype ]
; name	nrexcl
DPPGP	     3

[ atoms ]
; nr	type	resnr	residu	atom	cgnr	charge	mass
     1       CTL2    216    DPPGP     C3      1     0.080000    12.0110   ; qtot  0.080
     2       HAL2    216    DPPGP   HG31      2     0.090000     1.0080   ; qtot  0.170
     3       HAL2    216    DPPGP   HG32      3     0.090000     1.0080   ; qtot  0.260
     4        OSL    216    DPPGP    O31      4    -0.490000    15.9994   ; qtot -0.230
     5         CL    216    DPPGP    CC1      5     0.900000    12.0110   ; qtot  0.670
     6        OBL    216    DPPGP    OC1      6    -0.630000    15.9994   ; qtot  0.040
     7       CTL2    216    DPPGP    CC2      7    -0.220000    12.0110   ; qtot -0.180
     8       HAL2    216    DPPGP    H2R      8     0.090000     1.0080   ; qtot -0.090
     9       HAL2    216    DPPGP    H2S      9     0.090000     1.0080   ; qtot  0.000
    10       CTL1    216    DPPGP     C2     10     0.140000    12.0110   ; qtot  0.140
    11       HAL1    216    DPPGP   HG22     11     0.090000     1.0080   ; qtot  0.230
    12        OHL    216    DPPGP   OG12     12    -0.650000    15.9994   ; qtot -0.420
    13        HOL    216    DPPGP   HO12     13     0.420000     1.0080   ; qtot  0.000
    14       CTL2    216    DPPGP     C1     14    -0.080000    12.0110   ; qtot -0.080
    15       HAL2    216    DPPGP   HG11     15     0.090000     1.0080   ; qtot  0.010
    16       HAL2    216    DPPGP   HG12     16     0.090000     1.0080   ; qtot  0.100
    17         PL    216    DPPGP     P1     17     1.500000    30.9740   ; qtot  1.600
    18        O2L    216    DPPGP   OP13     18    -0.780000    15.9994   ; qtot  0.820
    19        O2L    216    DPPGP   OP14     19    -0.780000    15.9994   ; qtot  0.040
    20       OSLP    216    DPPGP   OP11     20    -0.570000    15.9994   ; qtot -0.530
    21       OSLP    216    DPPGP   OP12     21    -0.570000    15.9994   ; qtot -1.100
    22       CTL2    216    DPPGP    C11     22    -0.080000    12.0110   ; qtot -1.180
    23       HAL2    216    DPPGP   H11J     23     0.090000     1.0080   ; qtot -1.090
    24       HAL2    216    DPPGP   H11K     24     0.090000     1.0080   ; qtot -1.000
    25       CTL1    216    DPPGP    C12     25     0.170000    12.0110   ; qtot -0.830
    26       HAL1    216    DPPGP   H12J     26     0.090000     1.0080   ; qtot -0.740
    27        OSL    216    DPPGP    O12     27    -0.490000    15.9994   ; qtot -1.230
    28         CL    216    DPPGP    CA1     28     0.900000    12.0110   ; qtot -0.330
    29        OBL    216    DPPGP    OA1     29    -0.630000    15.9994   ; qtot -0.960
    30       CTL2    216    DPPGP    CA2     30    -0.220000    12.0110   ; qtot -1.180
    31       HAL2    216    DPPGP    H2A     31     0.090000     1.0080   ; qtot -1.090
    32       HAL2    216    DPPGP    H2B     32     0.090000     1.0080   ; qtot -1.000
    33       CTL2    216    DPPGP    C13     33     0.080000    12.0110   ; qtot -0.920
    34       HAL2    216    DPPGP   H13J     34     0.090000     1.0080   ; qtot -0.830
    35       HAL2    216    DPPGP   H13K     35     0.090000     1.0080   ; qtot -0.740
    36        OSL    216    DPPGP    O13     36    -0.490000    15.9994   ; qtot -1.230
    37         CL    216    DPPGP    CB1     37     0.900000    12.0110   ; qtot -0.330
    38        OBL    216    DPPGP    OB1     38    -0.630000    15.9994   ; qtot -0.960
    39       CTL2    216    DPPGP    CB2     39    -0.220000    12.0110   ; qtot -1.180
    40       HAL2    216    DPPGP    H2D     40     0.090000     1.0080   ; qtot -1.090
    41       HAL2    216    DPPGP    H2E     41     0.090000     1.0080   ; qtot -1.000
    42       CTL2    216    DPPGP    CA3     42    -0.180000    12.0110   ; qtot -1.180
    43       HAL2    216    DPPGP    H3A     43     0.090000     1.0080   ; qtot -1.090
    44       HAL2    216    DPPGP    H3B     44     0.090000     1.0080   ; qtot -1.000
    45       CTL2    216    DPPGP    CA4     45    -0.180000    12.0110   ; qtot -1.180
    46       HAL2    216    DPPGP    H4A     46     0.090000     1.0080   ; qtot -1.090
    47       HAL2    216    DPPGP    H4B     47     0.090000     1.0080   ; qtot -1.000
    48       CTL2    216    DPPGP    CA5     48    -0.180000    12.0110   ; qtot -1.180
    49       HAL2    216    DPPGP    H5A     49     0.090000     1.0080   ; qtot -1.090
    50       HAL2    216    DPPGP    H5B     50     0.090000     1.0080   ; qtot -1.000
    51       CTL2    216    DPPGP    CA6     51    -0.180000    12.0110   ; qtot -1.180
    52       HAL2    216    DPPGP    H6A     52     0.090000     1.0080   ; qtot -1.090
    53       HAL2    216    DPPGP    H6B     53     0.090000     1.0080   ; qtot -1.000
    54       CTL2    216    DPPGP    CA7     54    -0.180000    12.0110   ; qtot -1.180
    55       HAL2    216    DPPGP    H7A     55     0.090000     1.0080   ; qtot -1.090
    56       HAL2    216    DPPGP    H7B     56     0.090000     1.0080   ; qtot -1.000
    57       CTL2    216    DPPGP    CA8     57    -0.180000    12.0110   ; qtot -1.180
    58       HAL2    216    DPPGP    H8A     58     0.090000     1.0080   ; qtot -1.090
    59       HAL2    216    DPPGP    H8B     59     0.090000     1.0080   ; qtot -1.000
    60       CTL2    216    DPPGP    CA9     60    -0.180000    12.0110   ; qtot -1.180
    61       HAL2    216    DPPGP    H9A     61     0.090000     1.0080   ; qtot -1.090
    62       HAL2    216    DPPGP    H9B     62     0.090000     1.0080   ; qtot -1.000
    63       CTL2    216    DPPGP   CA10     63    -0.180000    12.0110   ; qtot -1.180
    64       HAL2    216    DPPGP   H10A     64     0.090000     1.0080   ; qtot -1.090
    65       HAL2    216    DPPGP   H10B     65     0.090000     1.0080   ; qtot -1.000
    66       CTL2    216    DPPGP   CA11     66    -0.180000    12.0110   ; qtot -1.180
    67       HAL2    216    DPPGP   H11A     67     0.090000     1.0080   ; qtot -1.090
    68       HAL2    216    DPPGP   H11B     68     0.090000     1.0080   ; qtot -1.000
    69       CTL2    216    DPPGP   CA12     69    -0.180000    12.0110   ; qtot -1.180
    70       HAL2    216    DPPGP   H12A     70     0.090000     1.0080   ; qtot -1.090
    71       HAL2    216    DPPGP   H12B     71     0.090000     1.0080   ; qtot -1.000
    72       CTL2    216    DPPGP   CA13     72    -0.180000    12.0110   ; qtot -1.180
    73       HAL2    216    DPPGP   H13A     73     0.090000     1.0080   ; qtot -1.090
    74       HAL2    216    DPPGP   H13B     74     0.090000     1.0080   ; qtot -1.000
    75       CTL2    216    DPPGP   CA14     75    -0.180000    12.0110   ; qtot -1.180
    76       HAL2    216    DPPGP   H14A     76     0.090000     1.0080   ; qtot -1.090
    77       HAL2    216    DPPGP   H14B     77     0.090000     1.0080   ; qtot -1.000
    78       CTL2    216    DPPGP   CA15     78    -0.180000    12.0110   ; qtot -1.180
    79       HAL2    216    DPPGP   H15A     79     0.090000     1.0080   ; qtot -1.090
    80       HAL2    216    DPPGP   H15B     80     0.090000     1.0080   ; qtot -1.000
    81       CTL3    216    DPPGP   CA16     81    -0.270000    12.0110   ; qtot -1.270
    82       HAL3    216    DPPGP   H16A     82     0.090000     1.0080   ; qtot -1.180
    83       HAL3    216    DPPGP   H16B     83     0.090000     1.0080   ; qtot -1.090
    84       HAL3    216    DPPGP   H16C     84     0.090000     1.0080   ; qtot -1.000
    85       CTL2    216    DPPGP    CB3     85    -0.180000    12.0110   ; qtot -1.180
    86       HAL2    216    DPPGP    H3D     86     0.090000     1.0080   ; qtot -1.090
    87       HAL2    216    DPPGP    H3E     87     0.090000     1.0080   ; qtot -1.000
    88       CTL2    216    DPPGP    CB4     88    -0.180000    12.0110   ; qtot -1.180
    89       HAL2    216    DPPGP    H4D     89     0.090000     1.0080   ; qtot -1.090
    90       HAL2    216    DPPGP    H4E     90     0.090000     1.0080   ; qtot -1.000
    91       CTL2    216    DPPGP    CB5     91    -0.180000    12.0110   ; qtot -1.180
    92       HAL2    216    DPPGP    H5D     92     0.090000     1.0080   ; qtot -1.090
    93       HAL2    216    DPPGP    H5E     93     0.090000     1.0080   ; qtot -1.000
    94       CTL2    216    DPPGP    CB6     94    -0.180000    12.0110   ; qtot -1.180
    95       HAL2    216    DPPGP    H6D     95     0.090000     1.0080   ; qtot -1.090
    96       HAL2    216    DPPGP    H6E     96     0.090000     1.0080   ; qtot -1.000
    97       CTL2    216    DPPGP    CB7     97    -0.180000    12.0110   ; qtot -1.180
    98       HAL2    216    DPPGP    H7D     98     0.090000     1.0080   ; qtot -1.090
    99       HAL2    216    DPPGP    H7E     99     0.090000     1.0080   ; qtot -1.000
   100       CTL2    216    DPPGP    CB8    100    -0.180000    12.0110   ; qtot -1.180
   101       HAL2    216    DPPGP    H8D    101     0.090000     1.0080   ; qtot -1.090
   102       HAL2    216    DPPGP    H8E    102     0.090000     1.0080   ; qtot -1.000
   103       CTL2    216    DPPGP    CB9    103    -0.180000    12.0110   ; qtot -1.180
   104       HAL2    216    DPPGP    H9D    104     0.090000     1.0080   ; qtot -1.090
   105       HAL2    216    DPPGP    H9E    105     0.090000     1.0080   ; qtot -1.000
   106       CTL2    216    DPPGP   CB10    106    -0.180000    12.0110   ; qtot -1.180
   107       HAL2    216    DPPGP   H10D    107     0.090000     1.0080   ; qtot -1.090
   108       HAL2    216    DPPGP   H10E    108     0.090000     1.0080   ; qtot -1.000
   109       CTL2    216    DPPGP   CB11    109    -0.180000    12.0110   ; qtot -1.180
   110       HAL2    216    DPPGP   H11D    110     0.090000     1.0080   ; qtot -1.090
   111       HAL2    216    DPPGP   H11E    111     0.090000     1.0080   ; qtot -1.000
   112       CTL2    216    DPPGP   CB12    112    -0.180000    12.0110   ; qtot -1.180
   113       HAL2    216    DPPGP   H12D    113     0.090000     1.0080   ; qtot -1.090
   114       HAL2    216    DPPGP   H12E    114     0.090000     1.0080   ; qtot -1.000
   115       CTL2    216    DPPGP   CB13    115    -0.180000    12.0110   ; qtot -1.180
   116       HAL2    216    DPPGP   H13D    116     0.090000     1.0080   ; qtot -1.090
   117       HAL2    216    DPPGP   H13E    117     0.090000     1.0080   ; qtot -1.000
   118       CTL2    216    DPPGP   CB14    118    -0.180000    12.0110   ; qtot -1.180
   119       HAL2    216    DPPGP   H14D    119     0.090000     1.0080   ; qtot -1.090
   120       HAL2    216    DPPGP   H14E    120     0.090000     1.0080   ; qtot -1.000
   121       CTL2    216    DPPGP   CB15    121    -0.180000    12.0110   ; qtot -1.180
   122       HAL2    216    DPPGP   H15D    122     0.090000     1.0080   ; qtot -1.090
   123       HAL2    216    DPPGP   H15E    123     0.090000     1.0080   ; qtot -1.000
   124       CTL3    216    DPPGP   CB16    124    -0.270000    12.0110   ; qtot -1.270
   125       HAL3    216    DPPGP   H16D    125     0.090000     1.0080   ; qtot -1.180
   126       HAL3    216    DPPGP   H16E    126     0.090000     1.0080   ; qtot -1.090
   127       HAL3    216    DPPGP   H16F    127     0.090000     1.0080   ; qtot -1.000
   128       CTL2    216    DPPGP    CC3    128    -0.180000    12.0110   ; qtot -1.180
   129       HAL2    216    DPPGP    H3R    129     0.090000     1.0080   ; qtot -1.090
   130       HAL2    216    DPPGP    H3S    130     0.090000     1.0080   ; qtot -1.000
   131       CTL2    216    DPPGP    CC4    131    -0.180000    12.0110   ; qtot -1.180
   132       HAL2    216    DPPGP    H4R    132     0.090000     1.0080   ; qtot -1.090
   133       HAL2    216    DPPGP    H4S    133     0.090000     1.0080   ; qtot -1.000
   134       CTL2    216    DPPGP    CC5    134    -0.180000    12.0110   ; qtot -1.180
   135       HAL2    216    DPPGP    H5R    135     0.090000     1.0080   ; qtot -1.090
   136       HAL2    216    DPPGP    H5S    136     0.090000     1.0080   ; qtot -1.000
   137       CTL2    216    DPPGP    CC6    137    -0.180000    12.0110   ; qtot -1.180
   138       HAL2    216    DPPGP    H6R    138     0.090000     1.0080   ; qtot -1.090
   139       HAL2    216    DPPGP    H6S    139     0.090000     1.0080   ; qtot -1.000
   140       CTL2    216    DPPGP    CC7    140    -0.180000    12.0110   ; qtot -1.180
   141       HAL2    216    DPPGP    H7R    141     0.090000     1.0080   ; qtot -1.090
   142       HAL2    216    DPPGP    H7S    142     0.090000     1.0080   ; qtot -1.000
   143       CTL2    216    DPPGP    CC8    143    -0.180000    12.0110   ; qtot -1.180
   144       HAL2    216    DPPGP    H8R    144     0.090000     1.0080   ; qtot -1.090
   145       HAL2    216    DPPGP    H8S    145     0.090000     1.0080   ; qtot -1.000
   146       CTL2    216    DPPGP    CC9    146    -0.180000    12.0110   ; qtot -1.180
   147       HAL2    216    DPPGP    H9R    147     0.090000     1.0080   ; qtot -1.090
   148       HAL2    216    DPPGP    H9S    148     0.090000     1.0080   ; qtot -1.000
   149       CTL2    216    DPPGP   CC10    149    -0.180000    12.0110   ; qtot -1.180
   150       HAL2    216    DPPGP   H10R    150     0.090000     1.0080   ; qtot -1.090
   151       HAL2    216    DPPGP   H10S    151     0.090000     1.0080   ; qtot -1.000
   152       CTL2    216    DPPGP   CC11    152    -0.180000    12.0110   ; qtot -1.180
   153       HAL2    216    DPPGP   H11R    153     0.090000     1.0080   ; qtot -1.090
   154       HAL2    216    DPPGP   H11S    154     0.090000     1.0080   ; qtot -1.000
   155       CTL2    216    DPPGP   CC12    155    -0.180000    12.0110   ; qtot -1.180
   156       HAL2    216    DPPGP   H12R    156     0.090000     1.0080   ; qtot -1.090
   157       HAL2    216    DPPGP   H12S    157     0.090000     1.0080   ; qtot -1.000
   158       CTL2    216    DPPGP   CC13    158    -0.180000    12.0110   ; qtot -1.180
   159       HAL2    216    DPPGP   H13R    159     0.090000     1.0080   ; qtot -1.090
   160       HAL2    216    DPPGP   H13S    160     0.090000     1.0080   ; qtot -1.000
   161       CTL2    216    DPPGP   CC14    161    -0.180000    12.0110   ; qtot -1.180
   162       HAL2    216    DPPGP   H14R    162     0.090000     1.0080   ; qtot -1.090
   163       HAL2    216    DPPGP   H14S    163     0.090000     1.0080   ; qtot -1.000
   164       CTL2    216    DPPGP   CC15    164    -0.180000    12.0110   ; qtot -1.180
   165       HAL2    216    DPPGP   H15R    165     0.090000     1.0080   ; qtot -1.090
   166       HAL2    216    DPPGP   H15S    166     0.090000     1.0080   ; qtot -1.000
   167       CTL3    216    DPPGP   CC16    167    -0.270000    12.0110   ; qtot -1.270
   168       HAL3    216    DPPGP   H16R    168     0.090000     1.0080   ; qtot -1.180
   169       HAL3    216    DPPGP   H16S    169     0.090000     1.0080   ; qtot -1.090
   170       HAL3    216    DPPGP   H16T    170     0.090000     1.0080   ; qtot -1.000

[ bonds ]
; ai	aj	funct	b0	Kb
    1     2     1
    1     3     1
    4     1     1
   10     1     1
    4     5     1
    5     6     1
    5     7     1
    7     8     1
    7     9     1
    7   128     1
   10    11     1
   10    12     1
   14    10     1
   12    13     1
   14    15     1
   14    16     1
   14    20     1
   17    18     1
   17    19     1
   17    20     1
   17    21     1
   21    22     1
   22    23     1
   22    24     1
   22    25     1
   25    26     1
   25    27     1
   25    33     1
   27    28     1
   28    29     1
   28    30     1
   30    31     1
   30    32     1
   30    42     1
   33    34     1
   33    35     1
   33    36     1
   36    37     1
   37    38     1
   37    39     1
   39    40     1
   39    41     1
   39    85     1
   42    43     1
   42    44     1
   42    45     1
   45    46     1
   45    47     1
   45    48     1
   48    49     1
   48    50     1
   48    51     1
   51    52     1
   51    53     1
   51    54     1
   54    55     1
   54    56     1
   54    57     1
   57    58     1
   57    59     1
   57    60     1
   60    61     1
   60    62     1
   60    63     1
   63    64     1
   63    65     1
   63    66     1
   66    67     1
   66    68     1
   66    69     1
   69    70     1
   69    71     1
   69    72     1
   72    73     1
   72    74     1
   72    75     1
   75    76     1
   75    77     1
   75    78     1
   78    79     1
   78    80     1
   78    81     1
   81    82     1
   81    83     1
   81    84     1
   85    86     1
   85    87     1
   85    88     1
   88    89     1
   88    90     1
   88    91     1
   91    92     1
   91    93     1
   91    94     1
   94    95     1
   94    96     1
   94    97     1
   97    98     1
   97    99     1
   97   100     1
  100   101     1
  100   102     1
  100   103     1
  103   104     1
  103   105     1
  103   106     1
  106   107     1
  106   108     1
  106   109     1
  109   110     1
  109   111     1
  109   112     1
  112   113     1
  112   114     1
  112   115     1
  115   116     1
  115   117     1
  115   118     1
  118   119     1
  118   120     1
  118   121     1
  121   122     1
  121   123     1
  121   124     1
  124   125     1
  124   126     1
  124   127     1
  128   129     1
  128   130     1
  128   131     1
  131   132     1
  131   133     1
  131   134     1
  134   135     1
  134   136     1
  134   137     1
  137   138     1
  137   139     1
  137   140     1
  140   141     1
  140   142     1
  140   143     1
  143   144     1
  143   145     1
  143   146     1
  146   147     1
  146   148     1
  146   149     1
  149   150     1
  149   151     1
  149   152     1
  152   153     1
  152   154     1
  152   155     1
  155   156     1
  155   157     1
  155   158     1
  158   159     1
  158   160     1
  158   161     1
  161   162     1
  161   163     1
  161   164     1
  164   165     1
  164   166     1
  164   167     1
  167   168     1
  167   169     1
  167   170     1

[ pairs ]
; ai	aj	funct	c6	c12 or
; ai	aj	funct	fudgeQQ	q1	q2	c6	c12
    1     6     1
    1     7     1
    1    13     1
    1    15     1
    1    16     1
    1    20     1
    2     5     1
    2    11     1
    2    12     1
    2    14     1
    3     5     1
    3    11     1
    3    12     1
    3    14     1
    4     8     1
    4     9     1
    4    11     1
    4    12     1
    4    14     1
    4   128     1
    5    10     1
    5   129     1
    5   130     1
    5   131     1
    6     8     1
    6     9     1
    6   128     1
    7   132     1
    7   133     1
    7   134     1
    8   129     1
    8   130     1
    8   131     1
    9   129     1
    9   130     1
    9   131     1
   10    17     1
   11    13     1
   11    15     1
   11    16     1
   11    20     1
   12    15     1
   12    16     1
   12    20     1
   13    14     1
   14    18     1
   14    19     1
   14    21     1
   15    17     1
   16    17     1
   17    23     1
   17    24     1
   17    25     1
   18    22     1
   19    22     1
   20    22     1
   21    26     1
   21    27     1
   21    33     1
   22    28     1
   22    34     1
   22    35     1
   22    36     1
   23    26     1
   23    27     1
   23    33     1
   24    26     1
   24    27     1
   24    33     1
   25    29     1
   25    30     1
   25    37     1
   26    28     1
   26    34     1
   26    35     1
   26    36     1
   27    31     1
   27    32     1
   27    34     1
   27    35     1
   27    36     1
   27    42     1
   28    33     1
   28    43     1
   28    44     1
   28    45     1
   29    31     1
   29    32     1
   29    42     1
   30    46     1
   30    47     1
   30    48     1
   31    43     1
   31    44     1
   31    45     1
   32    43     1
   32    44     1
   32    45     1
   33    38     1
   33    39     1
   34    37     1
   35    37     1
   36    40     1
   36    41     1
   36    85     1
   37    86     1
   37    87     1
   37    88     1
   38    40     1
   38    41     1
   38    85     1
   39    89     1
   39    90     1
   39    91     1
   40    86     1
   40    87     1
   40    88     1
   41    86     1
   41    87     1
   41    88     1
   42    49     1
   42    50     1
   42    51     1
   43    46     1
   43    47     1
   43    48     1
   44    46     1
   44    47     1
   44    48     1
   45    52     1
   45    53     1
   45    54     1
   46    49     1
   46    50     1
   46    51     1
   47    49     1
   47    50     1
   47    51     1
   48    55     1
   48    56     1
   48    57     1
   49    52     1
   49    53     1
   49    54     1
   50    52     1
   50    53     1
   50    54     1
   51    58     1
   51    59     1
   51    60     1
   52    55     1
   52    56     1
   52    57     1
   53    55     1
   53    56     1
   53    57     1
   54    61     1
   54    62     1
   54    63     1
   55    58     1
   55    59     1
   55    60     1
   56    58     1
   56    59     1
   56    60     1
   57    64     1
   57    65     1
   57    66     1
   58    61     1
   58    62     1
   58    63     1
   59    61     1
   59    62     1
   59    63     1
   60    67     1
   60    68     1
   60    69     1
   61    64     1
   61    65     1
   61    66     1
   62    64     1
   62    65     1
   62    66     1
   63    70     1
   63    71     1
   63    72     1
   64    67     1
   64    68     1
   64    69     1
   65    67     1
   65    68     1
   65    69     1
   66    73     1
   66    74     1
   66    75     1
   67    70     1
   67    71     1
   67    72     1
   68    70     1
   68    71     1
   68    72     1
   69    76     1
   69    77     1
   69    78     1
   70    73     1
   70    74     1
   70    75     1
   71    73     1
   71    74     1
   71    75     1
   72    79     1
   72    80     1
   72    81     1
   73    76     1
   73    77     1
   73    78     1
   74    76     1
   74    77     1
   74    78     1
   75    82     1
   75    83     1
   75    84     1
   76    79     1
   76    80     1
   76    81     1
   77    79     1
   77    80     1
   77    81     1
   79    82     1
   79    83     1
   79    84     1
   80    82     1
   80    83     1
   80    84     1
   85    92     1
   85    93     1
   85    94     1
   86    89     1
   86    90     1
   86    91     1
   87    89     1
   87    90     1
   87    91     1
   88    95     1
   88    96     1
   88    97     1
   89    92     1
   89    93     1
   89    94     1
   90    92     1
   90    93     1
   90    94     1
   91    98     1
   91    99     1
   91   100     1
   92    95     1
   92    96     1
   92    97     1
   93    95     1
   93    96     1
   93    97     1
   94   101     1
   94   102     1
   94   103     1
   95    98     1
   95    99     1
   95   100     1
   96    98     1
   96    99     1
   96   100     1
   97   104     1
   97   105     1
   97   106     1
   98   101     1
   98   102     1
   98   103     1
   99   101     1
   99   102     1
   99   103     1
  100   107     1
  100   108     1
  100   109     1
  101   104     1
  101   105     1
  101   106     1
  102   104     1
  102   105     1
  102   106     1
  103   110     1
  103   111     1
  103   112     1
  104   107     1
  104   108     1
  104   109     1
  105   107     1
  105   108     1
  105   109     1
  106   113     1
  106   114     1
  106   115     1
  107   110     1
  107   111     1
  107   112     1
  108   110     1
  108   111     1
  108   112     1
  109   116     1
  109   117     1
  109   118     1
  110   113     1
  110   114     1
  110   115     1
  111   113     1
  111   114     1
  111   115     1
  112   119     1
  112   120     1
  112   121     1
  113   116     1
  113   117     1
  113   118     1
  114   116     1
  114   117     1
  114   118     1
  115   122     1
  115   123     1
  115   124     1
  116   119     1
  116   120     1
  116   121     1
  117   119     1
  117   120     1
  117   121     1
  118   125     1
  118   126     1
  118   127     1
  119   122     1
  119   123     1
  119   124     1
  120   122     1
  120   123     1
  120   124     1
  122   125     1
  122   126     1
  122   127     1
  123   125     1
  123   126     1
  123   127     1
  128   135     1
  128   136     1
  128   137     1
  129   132     1
  129   133     1
  129   134     1
  130   132     1
  130   133     1
  130   134     1
  131   138     1
  131   139     1
  131   140     1
  132   135     1
  132   136     1
  132   137     1
  133   135     1
  133   136     1
  133   137     1
  134   141     1
  134   142     1
  134   143     1
  135   138     1
  135   139     1
  135   140     1
  136   138     1
  136   139     1
  136   140     1
  137   144     1
  137   145     1
  137   146     1
  138   141     1
  138   142     1
  138   143     1
  139   141     1
  139   142     1
  139   143     1
  140   147     1
  140   148     1
  140   149     1
  141   144     1
  141   145     1
  141   146     1
  142   144     1
  142   145     1
  142   146     1
  143   150     1
  143   151     1
  143   152     1
  144   147     1
  144   148     1
  144   149     1
  145   147     1
  145   148     1
  145   149     1
  146   153     1
  146   154     1
  146   155     1
  147   150     1
  147   151     1
  147   152     1
  148   150     1
  148   151     1
  148   152     1
  149   156     1
  149   157     1
  149   158     1
  150   153     1
  150   154     1
  150   155     1
  151   153     1
  151   154     1
  151   155     1
  152   159     1
  152   160     1
  152   161     1
  153   156     1
  153   157     1
  153   158     1
  154   156     1
  154   157     1
  154   158     1
  155   162     1
  155   163     1
  155   164     1
  156   159     1
  156   160     1
  156   161     1
  157   159     1
  157   160     1
  157   161     1
  158   165     1
  158   166     1
  158   167     1
  159   162     1
  159   163     1
  159   164     1
  160   162     1
  160   163     1
  160   164     1
  161   168     1
  161   169     1
  161   170     1
  162   165     1
  162   166     1
  162   167     1
  163   165     1
  163   166     1
  163   167     1
  165   168     1
  165   169     1
  165   170     1
  166   168     1
  166   169     1
  166   170     1

[ angles ] 
; ai	aj	ak	funct	th0	cth	S0	Kub
    2     1     3     5
    2     1     4     5
    2     1    10     5
    3     1     4     5
    3     1    10     5
    4     1    10     5
    1     4     5     5
    4     5     6     5
    4     5     7     5
    6     5     7     5
    5     7     8     5
    5     7     9     5
    5     7   128     5
    8     7     9     5
    8     7   128     5
    9     7   128     5
    1    10    11     5
    1    10    12     5
    1    10    14     5
   11    10    12     5
   11    10    14     5
   12    10    14     5
   10    12    13     5
   10    14    15     5
   10    14    16     5
   10    14    20     5
   15    14    16     5
   15    14    20     5
   16    14    20     5
   18    17    19     5
   18    17    20     5
   18    17    21     5
   19    17    20     5
   19    17    21     5
   20    17    21     5
   14    20    17     5
   17    21    22     5
   21    22    23     5
   21    22    24     5
   21    22    25     5
   23    22    24     5
   23    22    25     5
   24    22    25     5
   22    25    26     5
   22    25    27     5
   22    25    33     5
   26    25    27     5
   26    25    33     5
   27    25    33     5
   25    27    28     5
   27    28    29     5
   27    28    30     5
   29    28    30     5
   28    30    31     5
   28    30    32     5
   28    30    42     5
   31    30    32     5
   31    30    42     5
   32    30    42     5
   25    33    34     5
   25    33    35     5
   25    33    36     5
   34    33    35     5
   34    33    36     5
   35    33    36     5
   33    36    37     5
   36    37    38     5
   36    37    39     5
   38    37    39     5
   37    39    40     5
   37    39    41     5
   37    39    85     5
   40    39    41     5
   40    39    85     5
   41    39    85     5
   30    42    43     5
   30    42    44     5
   30    42    45     5
   43    42    44     5
   43    42    45     5
   44    42    45     5
   42    45    46     5
   42    45    47     5
   42    45    48     5
   46    45    47     5
   46    45    48     5
   47    45    48     5
   45    48    49     5
   45    48    50     5
   45    48    51     5
   49    48    50     5
   49    48    51     5
   50    48    51     5
   48    51    52     5
   48    51    53     5
   48    51    54     5
   52    51    53     5
   52    51    54     5
   53    51    54     5
   51    54    55     5
   51    54    56     5
   51    54    57     5
   55    54    56     5
   55    54    57     5
   56    54    57     5
   54    57    58     5
   54    57    59     5
   54    57    60     5
   58    57    59     5
   58    57    60     5
   59    57    60     5
   57    60    61     5
   57    60    62     5
   57    60    63     5
   61    60    62     5
   61    60    63     5
   62    60    63     5
   60    63    64     5
   60    63    65     5
   60    63    66     5
   64    63    65     5
   64    63    66     5
   65    63    66     5
   63    66    67     5
   63    66    68     5
   63    66    69     5
   67    66    68     5
   67    66    69     5
   68    66    69     5
   66    69    70     5
   66    69    71     5
   66    69    72     5
   70    69    71     5
   70    69    72     5
   71    69    72     5
   69    72    73     5
   69    72    74     5
   69    72    75     5
   73    72    74     5
   73    72    75     5
   74    72    75     5
   72    75    76     5
   72    75    77     5
   72    75    78     5
   76    75    77     5
   76    75    78     5
   77    75    78     5
   75    78    79     5
   75    78    80     5
   75    78    81     5
   79    78    80     5
   79    78    81     5
   80    78    81     5
   78    81    82     5
   78    81    83     5
   78    81    84     5
   82    81    83     5
   82    81    84     5
   83    81    84     5
   39    85    86     5
   39    85    87     5
   39    85    88     5
   86    85    87     5
   86    85    88     5
   87    85    88     5
   85    88    89     5
   85    88    90     5
   85    88    91     5
   89    88    90     5
   89    88    91     5
   90    88    91     5
   88    91    92     5
   88    91    93     5
   88    91    94     5
   92    91    93     5
   92    91    94     5
   93    91    94     5
   91    94    95     5
   91    94    96     5
   91    94    97     5
   95    94    96     5
   95    94    97     5
   96    94    97     5
   94    97    98     5
   94    97    99     5
   94    97   100     5
   98    97    99     5
   98    97   100     5
   99    97   100     5
   97   100   101     5
   97   100   102     5
   97   100   103     5
  101   100   102     5
  101   100   103     5
  102   100   103     5
  100   103   104     5
  100   103   105     5
  100   103   106     5
  104   103   105     5
  104   103   106     5
  105   103   106     5
  103   106   107     5
  103   106   108     5
  103   106   109     5
  107   106   108     5
  107   106   109     5
  108   106   109     5
  106   109   110     5
  106   109   111     5
  106   109   112     5
  110   109   111     5
  110   109   112     5
  111   109   112     5
  109   112   113     5
  109   112   114     5
  109   112   115     5
  113   112   114     5
  113   112   115     5
  114   112   115     5
  112   115   116     5
  112   115   117     5
  112   115   118     5
  116   115   117     5
  116   115   118     5
  117   115   118     5
  115   118   119     5
  115   118   120     5
  115   118   121     5
  119   118   120     5
  119   118   121     5
  120   118   121     5
  118   121   122     5
  118   121   123     5
  118   121   124     5
  122   121   123     5
  122   121   124     5
  123   121   124     5
  121   124   125     5
  121   124   126     5
  121   124   127     5
  125   124   126     5
  125   124   127     5
  126   124   127     5
    7   128   129     5
    7   128   130     5
    7   128   131     5
  129   128   130     5
  129   128   131     5
  130   128   131     5
  128   131   132     5
  128   131   133     5
  128   131   134     5
  132   131   133     5
  132   131   134     5
  133   131   134     5
  131   134   135     5
  131   134   136     5
  131   134   137     5
  135   134   136     5
  135   134   137     5
  136   134   137     5
  134   137   138     5
  134   137   139     5
  134   137   140     5
  138   137   139     5
  138   137   140     5
  139   137   140     5
  137   140   141     5
  137   140   142     5
  137   140   143     5
  141   140   142     5
  141   140   143     5
  142   140   143     5
  140   143   144     5
  140   143   145     5
  140   143   146     5
  144   143   145     5
  144   143   146     5
  145   143   146     5
  143   146   147     5
  143   146   148     5
  143   146   149     5
  147   146   148     5
  147   146   149     5
  148   146   149     5
  146   149   150     5
  146   149   151     5
  146   149   152     5
  150   149   151     5
  150   149   152     5
  151   149   152     5
  149   152   153     5
  149   152   154     5
  149   152   155     5
  153   152   154     5
  153   152   155     5
  154   152   155     5
  152   155   156     5
  152   155   157     5
  152   155   158     5
  156   155   157     5
  156   155   158     5
  157   155   158     5
  155   158   159     5
  155   158   160     5
  155   158   161     5
  159   158   160     5
  159   158   161     5
  160   158   161     5
  158   161   162     5
  158   161   163     5
  158   161   164     5
  162   161   163     5
  162   161   164     5
  163   161   164     5
  161   164   165     5
  161   164   166     5
  161   164   167     5
  165   164   166     5
  165   164   167     5
  166   164   167     5
  164   167   168     5
  164   167   169     5
  164   167   170     5
  168   167   169     5
  168   167   170     5
  169   167   170     5

[ dihedrals ]
; ai	aj	ak	al	funct	phi0	cp	mult
    2     1     4     5     9
    3     1     4     5     9
    2     1    10    11     9
    2     1    10    12     9
    2     1    10    14     9
    3     1    10    11     9
    3     1    10    12     9
    3     1    10    14     9
    4     1    10    11     9
    4     1    10    12     9
    4     1    10    14     9
    5     4     1    10     9
    1     4     5     6     9
    1     4     5     7     9
    4     5     7     8     9
    4     5     7     9     9
    4     5     7   128     9
    6     5     7     8     9
    6     5     7     9     9
    6     5     7   128     9
    5     7   128   129     9
    5     7   128   130     9
    5     7   128   131     9
    8     7   128   129     9
    8     7   128   130     9
    8     7   128   131     9
    9     7   128   129     9
    9     7   128   130     9
    9     7   128   131     9
    1    10    12    13     9
   11    10    12    13     9
    1    10    14    15     9
    1    10    14    16     9
    1    10    14    20     9
   11    10    14    15     9
   11    10    14    16     9
   11    10    14    20     9
   12    10    14    15     9
   12    10    14    16     9
   12    10    14    20     9
   13    12    10    14     9
   10    14    20    17     9
   15    14    20    17     9
   16    14    20    17     9
   18    17    21    22     9
   19    17    21    22     9
   20    17    21    22     9
   14    20    17    18     9
   14    20    17    19     9
   14    20    17    21     9
   17    21    22    23     9
   17    21    22    24     9
   17    21    22    25     9
   21    22    25    26     9
   21    22    25    27     9
   21    22    25    33     9
   23    22    25    26     9
   23    22    25    27     9
   23    22    25    33     9
   24    22    25    26     9
   24    22    25    27     9
   24    22    25    33     9
   22    25    27    28     9
   26    25    27    28     9
   22    25    33    34     9
   22    25    33    35     9
   22    25    33    36     9
   26    25    33    34     9
   26    25    33    35     9
   26    25    33    36     9
   27    25    33    34     9
   27    25    33    35     9
   27    25    33    36     9
   28    27    25    33     9
   25    27    28    29     9
   25    27    28    30     9
   27    28    30    31     9
   27    28    30    32     9
   27    28    30    42     9
   29    28    30    31     9
   29    28    30    32     9
   29    28    30    42     9
   28    30    42    43     9
   28    30    42    44     9
   28    30    42    45     9
   31    30    42    43     9
   31    30    42    44     9
   31    30    42    45     9
   32    30    42    43     9
   32    30    42    44     9
   32    30    42    45     9
   25    33    36    37     9
   34    33    36    37     9
   35    33    36    37     9
   33    36    37    38     9
   33    36    37    39     9
   36    37    39    40     9
   36    37    39    41     9
   36    37    39    85     9
   38    37    39    40     9
   38    37    39    41     9
   38    37    39    85     9
   37    39    85    86     9
   37    39    85    87     9
   37    39    85    88     9
   40    39    85    86     9
   40    39    85    87     9
   40    39    85    88     9
   41    39    85    86     9
   41    39    85    87     9
   41    39    85    88     9
   30    42    45    46     9
   30    42    45    47     9
   30    42    45    48     9
   43    42    45    46     9
   43    42    45    47     9
   43    42    45    48     9
   44    42    45    46     9
   44    42    45    47     9
   44    42    45    48     9
   42    45    48    49     9
   42    45    48    50     9
   42    45    48    51     9
   46    45    48    49     9
   46    45    48    50     9
   46    45    48    51     9
   47    45    48    49     9
   47    45    48    50     9
   47    45    48    51     9
   45    48    51    52     9
   45    48    51    53     9
   45    48    51    54     9
   49    48    51    52     9
   49    48    51    53     9
   49    48    51    54     9
   50    48    51    52     9
   50    48    51    53     9
   50    48    51    54     9
   48    51    54    55     9
   48    51    54    56     9
   48    51    54    57     9
   52    51    54    55     9
   52    51    54    56     9
   52    51    54    57     9
   53    51    54    55     9
   53    51    54    56     9
   53    51    54    57     9
   51    54    57    58     9
   51    54    57    59     9
   51    54    57    60     9
   55    54    57    58     9
   55    54    57    59     9
   55    54    57    60     9
   56    54    57    58     9
   56    54    57    59     9
   56    54    57    60     9
   54    57    60    61     9
   54    57    60    62     9
   54    57    60    63     9
   58    57    60    61     9
   58    57    60    62     9
   58    57    60    63     9
   59    57    60    61     9
   59    57    60    62     9
   59    57    60    63     9
   57    60    63    64     9
   57    60    63    65     9
   57    60    63    66     9
   61    60    63    64     9
   61    60    63    65     9
   61    60    63    66     9
   62    60    63    64     9
   62    60    63    65     9
   62    60    63    66     9
   60    63    66    67     9
   60    63    66    68     9
   60    63    66    69     9
   64    63    66    67     9
   64    63    66    68     9
   64    63    66    69     9
   65    63    66    67     9
   65    63    66    68     9
   65    63    66    69     9
   63    66    69    70     9
   63    66    69    71     9
   63    66    69    72     9
   67    66    69    70     9
   67    66    69    71     9
   67    66    69    72     9
   68    66    69    70     9
   68    66    69    71     9
   68    66    69    72     9
   66    69    72    73     9
   66    69    72    74     9
   66    69    72    75     9
   70    69    72    73     9
   70    69    72    74     9
   70    69    72    75     9
   71    69    72    73     9
   71    69    72    74     9
   71    69    72    75     9
   69    72    75    76     9
   69    72    75    77     9
   69    72    75    78     9
   73    72    75    76     9
   73    72    75    77     9
   73    72    75    78     9
   74    72    75    76     9
   74    72    75    77     9
   74    72    75    78     9
   72    75    78    79     9
   72    75    78    80     9
   72    75    78    81     9
   76    75    78    79     9
   76    75    78    80     9
   76    75    78    81     9
   77    75    78    79     9
   77    75    78    80     9
   77    75    78    81     9
   75    78    81    82     9
   75    78    81    83     9
   75    78    81    84     9
   79    78    81    82     9
   79    78    81    83     9
   79    78    81    84     9
   80    78    81    82     9
   80    78    81    83     9
   80    78    81    84     9
   39    85    88    89     9
   39    85    88    90     9
   39    85    88    91     9
   86    85    88    89     9
   86    85    88    90     9
   86    85    88    91     9
   87    85    88    89     9
   87    85    88    90     9
   87    85    88    91     9
   85    88    91    92     9
   85    88    91    93     9
   85    88    91    94     9
   89    88    91    92     9
   89    88    91    93     9
   89    88    91    94     9
   90    88    91    92     9
   90    88    91    93     9
   90    88    91    94     9
   88    91    94    95     9
   88    91    94    96     9
   88    91    94    97     9
   92    91    94    95     9
   92    91    94    96     9
   92    91    94    97     9
   93    91    94    95     9
   93    91    94    96     9
   93    91    94    97     9
   91    94    97    98     9
   91    94    97    99     9
   91    94    97   100     9
   95    94    97    98     9
   95    94    97    99     9
   95    94    97   100     9
   96    94    97    98     9
   96    94    97    99     9
   96    94    97   100     9
   94    97   100   101     9
   94    97   100   102     9
   94    97   100   103     9
   98    97   100   101     9
   98    97   100   102     9
   98    97   100   103     9
   99    97   100   101     9
   99    97   100   102     9
   99    97   100   103     9
   97   100   103   104     9
   97   100   103   105     9
   97   100   103   106     9
  101   100   103   104     9
  101   100   103   105     9
  101   100   103   106     9
  102   100   103   104     9
  102   100   103   105     9
  102   100   103   106     9
  100   103   106   107     9
  100   103   106   108     9
  100   103   106   109     9
  104   103   106   107     9
  104   103   106   108     9
  104   103   106   109     9
  105   103   106   107     9
  105   103   106   108     9
  105   103   106   109     9
  103   106   109   110     9
  103   106   109   111     9
  103   106   109   112     9
  107   106   109   110     9
  107   106   109   111     9
  107   106   109   112     9
  108   106   109   110     9
  108   106   109   111     9
  108   106   109   112     9
  106   109   112   113     9
  106   109   112   114     9
  106   109   112   115     9
  110   109   112   113     9
  110   109   112   114     9
  110   109   112   115     9
  111   109   112   113     9
  111   109   112   114     9
  111   109   112   115     9
  109   112   115   116     9
  109   112   115   117     9
  109   112   115   118     9
  113   112   115   116     9
  113   112   115   117     9
  113   112   115   118     9
  114   112   115   116     9
  114   112   115   117     9
  114   112   115   118     9
  112   115   118   119     9
  112   115   118   120     9
  112   115   118   121     9
  116   115   118   119     9
  116   115   118   120     9
  116   115   118   121     9
  117   115   118   119     9
  117   115   118   120     9
  117   115   118   121     9
  115   118   121   122     9
  115   118   121   123     9
  115   118   121   124     9
  119   118   121   122     9
  119   118   121   123     9
  119   118   121   124     9
  120   118   121   122     9
  120   118   121   123     9
  120   118   121   124     9
  118   121   124   125     9
  118   121   124   126     9
  118   121   124   127     9
  122   121   124   125     9
  122   121   124   126     9
  122   121   124   127     9
  123   121   124   125     9
  123   121   124   126     9
  123   121   124   127     9
    7   128   131   132     9
    7   128   131   133     9
    7   128   131   134     9
  129   128   131   132     9
  129   128   131   133     9
  129   128   131   134     9
  130   128   131   132     9
  130   128   131   133     9
  130   128   131   134     9
  128   131   134   135     9
  128   131   134   136     9
  128   131   134   137     9
  132   131   134   135     9
  132   131   134   136     9
  132   131   134   137     9
  133   131   134   135     9
  133   131   134   136     9
  133   131   134   137     9
  131   134   137   138     9
  131   134   137   139     9
  131   134   137   140     9
  135   134   137   138     9
  135   134   137   139     9
  135   134   137   140     9
  136   134   137   138     9
  136   134   137   139     9
  136   134   137   140     9
  134   137   140   141     9
  134   137   140   142     9
  134   137   140   143     9
  138   137   140   141     9
  138   137   140   142     9
  138   137   140   143     9
  139   137   140   141     9
  139   137   140   142     9
  139   137   140   143     9
  137   140   143   144     9
  137   140   143   145     9
  137   140   143   146     9
  141   140   143   144     9
  141   140   143   145     9
  141   140   143   146     9
  142   140   143   144     9
  142   140   143   145     9
  142   140   143   146     9
  140   143   146   147     9
  140   143   146   148     9
  140   143   146   149     9
  144   143   146   147     9
  144   143   146   148     9
  144   143   146   149     9
  145   143   146   147     9
  145   143   146   148     9
  145   143   146   149     9
  143   146   149   150     9
  143   146   149   151     9
  143   146   149   152     9
  147   146   149   150     9
  147   146   149   151     9
  147   146   149   152     9
  148   146   149   150     9
  148   146   149   151     9
  148   146   149   152     9
  146   149   152   153     9
  146   149   152   154     9
  146   149   152   155     9
  150   149   152   153     9
  150   149   152   154     9
  150   149   152   155     9
  151   149   152   153     9
  151   149   152   154     9
  151   149   152   155     9
  149   152   155   156     9
  149   152   155   157     9
  149   152   155   158     9
  153   152   155   156     9
  153   152   155   157     9
  153   152   155   158     9
  154   152   155   156     9
  154   152   155   157     9
  154   152   155   158     9
  152   155   158   159     9
  152   155   158   160     9
  152   155   158   161     9
  156   155   158   159     9
  156   155   158   160     9
  156   155   158   161     9
  157   155   158   159     9
  157   155   158   160     9
  157   155   158   161     9
  155   158   161   162     9
  155   158   161   163     9
  155   158   161   164     9
  159   158   161   162     9
  159   158   161   163     9
  159   158   161   164     9
  160   158   161   162     9
  160   158   161   163     9
  160   158   161   164     9
  158   161   164   165     9
  158   161   164   166     9
  158   161   164   167     9
  162   161   164   165     9
  162   161   164   166     9
  162   161   164   167     9
  163   161   164   165     9
  163   161   164   166     9
  163   161   164   167     9
  161   164   167   168     9
  161   164   167   169     9
  161   164   167   170     9
  165   164   167   168     9
  165   164   167   169     9
  165   164   167   170     9
  166   164   167   168     9
  166   164   167   169     9
  166   164   167   170     9

[ dihedrals ]
; ai	aj	ak	al	funct	q0	cq
    5     4     7     6     2
   28    27    30    29     2
   37    36    39    38     2

#ifdef POSRES
[ position_restraints ]
#endif

#ifdef DIHRES
[ dihedral_restraints ]
   14    12    10     1     1   -120.0      2.5       DIHRES_FC
   22    27    25    33     1   -120.0      2.5       DIHRES_FC
#endif
