;;
;; Generated by CHARMM-GUI FF-Converter
;;
;; Correspondance:
;; jul316@lehigh.edu or wonpil@lehigh.edu
;;
;; GROMACS topology file for DPPGK
;;


[ moleculetype ]
; name	nrexcl
DPPGK	     3

[ atoms ]
; nr	type	resnr	residu	atom	cgnr	charge	mass
     1        NH3     57    DPPGK      N      1    -0.300000    14.0070   ; qtot -0.300
     2         HC     57    DPPGK    HT1      2     0.330000     1.0080   ; qtot  0.030
     3         HC     57    DPPGK    HT2      3     0.330000     1.0080   ; qtot  0.360
     4         HC     57    DPPGK    HT3      4     0.330000     1.0080   ; qtot  0.690
     5        CT1     57    DPPGK     CA      5     0.210000    12.0110   ; qtot  0.900
     6        HB1     57    DPPGK    HAC      6     0.100000     1.0080   ; qtot  1.000
     7        CT2     57    DPPGK     CB      7    -0.180000    12.0110   ; qtot  0.820
     8        HA2     57    DPPGK    HB1      8     0.090000     1.0080   ; qtot  0.910
     9        HA2     57    DPPGK    HB2      9     0.090000     1.0080   ; qtot  1.000
    10        CT2     57    DPPGK     CG     10    -0.180000    12.0110   ; qtot  0.820
    11        HA2     57    DPPGK    HG1     11     0.090000     1.0080   ; qtot  0.910
    12        HA2     57    DPPGK    HG2     12     0.090000     1.0080   ; qtot  1.000
    13        CT2     57    DPPGK     CD     13    -0.180000    12.0110   ; qtot  0.820
    14        HA2     57    DPPGK    HD1     14     0.090000     1.0080   ; qtot  0.910
    15        HA2     57    DPPGK    HD2     15     0.090000     1.0080   ; qtot  1.000
    16        CT2     57    DPPGK     CE     16     0.210000    12.0110   ; qtot  1.210
    17        HA2     57    DPPGK    HE1     17     0.050000     1.0080   ; qtot  1.260
    18        HA2     57    DPPGK    HE2     18     0.050000     1.0080   ; qtot  1.310
    19        NH3     57    DPPGK     NZ     19    -0.300000    14.0070   ; qtot  1.010
    20         HC     57    DPPGK    HZ1     20     0.330000     1.0080   ; qtot  1.340
    21         HC     57    DPPGK    HZ2     21     0.330000     1.0080   ; qtot  1.670
    22         HC     57    DPPGK    HZ3     22     0.330000     1.0080   ; qtot  2.000
    23          C     57    DPPGK      C     23     0.510000    12.0110   ; qtot  2.510
    24          O     57    DPPGK      O     24    -0.510000    15.9994   ; qtot  2.000
    25       CTL2     57    DPPGK    C13     25     0.090000    12.0110   ; qtot  2.090
    26       HAL2     57    DPPGK   H13A     26     0.090000     1.0080   ; qtot  2.180
    27       HAL2     57    DPPGK   H13B     27     0.090000     1.0080   ; qtot  2.270
    28        OSL     57    DPPGK    OC3     28    -0.270000    15.9994   ; qtot  2.000
    29       CTL1     57    DPPGK    C12     29     0.140000    12.0110   ; qtot  2.140
    30       HAL1     57    DPPGK   H12A     30     0.090000     1.0080   ; qtot  2.230
    31        OHL     57    DPPGK    OC2     31    -0.650000    15.9994   ; qtot  1.580
    32        HOL     57    DPPGK    HO2     32     0.420000     1.0080   ; qtot  2.000
    33       CTL2     57    DPPGK    C11     33    -0.080000    12.0110   ; qtot  1.920
    34       HAL2     57    DPPGK   H11A     34     0.090000     1.0080   ; qtot  2.010
    35       HAL2     57    DPPGK   H11B     35     0.090000     1.0080   ; qtot  2.100
    36         PL     57    DPPGK      P     36     1.500000    30.9740   ; qtot  3.600
    37        O2L     57    DPPGK    O13     37    -0.780000    15.9994   ; qtot  2.820
    38        O2L     57    DPPGK    O14     38    -0.780000    15.9994   ; qtot  2.040
    39       OSLP     57    DPPGK    O12     39    -0.570000    15.9994   ; qtot  1.470
    40       OSLP     57    DPPGK    O11     40    -0.570000    15.9994   ; qtot  0.900
    41       CTL2     57    DPPGK     C1     41    -0.080000    12.0110   ; qtot  0.820
    42       HAL2     57    DPPGK    HAZ     42     0.090000     1.0080   ; qtot  0.910
    43       HAL2     57    DPPGK    HBZ     43     0.090000     1.0080   ; qtot  1.000
    44       CTL1     57    DPPGK     C2     44     0.170000    12.0110   ; qtot  1.170
    45       HAL1     57    DPPGK     HS     45     0.090000     1.0080   ; qtot  1.260
    46        OSL     57    DPPGK    O21     46    -0.490000    15.9994   ; qtot  0.770
    47         CL     57    DPPGK    C21     47     0.900000    12.0110   ; qtot  1.670
    48        OBL     57    DPPGK    O22     48    -0.630000    15.9994   ; qtot  1.040
    49       CTL2     57    DPPGK    C22     49    -0.220000    12.0110   ; qtot  0.820
    50       HAL2     57    DPPGK    H2R     50     0.090000     1.0080   ; qtot  0.910
    51       HAL2     57    DPPGK    H2S     51     0.090000     1.0080   ; qtot  1.000
    52       CTL2     57    DPPGK     C3     52     0.080000    12.0110   ; qtot  1.080
    53       HAL2     57    DPPGK     HX     53     0.090000     1.0080   ; qtot  1.170
    54       HAL2     57    DPPGK     HY     54     0.090000     1.0080   ; qtot  1.260
    55        OSL     57    DPPGK    O31     55    -0.490000    15.9994   ; qtot  0.770
    56         CL     57    DPPGK    C31     56     0.900000    12.0110   ; qtot  1.670
    57        OBL     57    DPPGK    O32     57    -0.630000    15.9994   ; qtot  1.040
    58       CTL2     57    DPPGK    C32     58    -0.220000    12.0110   ; qtot  0.820
    59       HAL2     57    DPPGK    H2X     59     0.090000     1.0080   ; qtot  0.910
    60       HAL2     57    DPPGK    H2Y     60     0.090000     1.0080   ; qtot  1.000
    61       CTL2     57    DPPGK    C23     61    -0.180000    12.0110   ; qtot  0.820
    62       HAL2     57    DPPGK    H3R     62     0.090000     1.0080   ; qtot  0.910
    63       HAL2     57    DPPGK    H3S     63     0.090000     1.0080   ; qtot  1.000
    64       CTL2     57    DPPGK    C24     64    -0.180000    12.0110   ; qtot  0.820
    65       HAL2     57    DPPGK    H4R     65     0.090000     1.0080   ; qtot  0.910
    66       HAL2     57    DPPGK    H4S     66     0.090000     1.0080   ; qtot  1.000
    67       CTL2     57    DPPGK    C25     67    -0.180000    12.0110   ; qtot  0.820
    68       HAL2     57    DPPGK    H5R     68     0.090000     1.0080   ; qtot  0.910
    69       HAL2     57    DPPGK    H5S     69     0.090000     1.0080   ; qtot  1.000
    70       CTL2     57    DPPGK    C26     70    -0.180000    12.0110   ; qtot  0.820
    71       HAL2     57    DPPGK    H6R     71     0.090000     1.0080   ; qtot  0.910
    72       HAL2     57    DPPGK    H6S     72     0.090000     1.0080   ; qtot  1.000
    73       CTL2     57    DPPGK    C27     73    -0.180000    12.0110   ; qtot  0.820
    74       HAL2     57    DPPGK    H7R     74     0.090000     1.0080   ; qtot  0.910
    75       HAL2     57    DPPGK    H7S     75     0.090000     1.0080   ; qtot  1.000
    76       CTL2     57    DPPGK    C28     76    -0.180000    12.0110   ; qtot  0.820
    77       HAL2     57    DPPGK    H8R     77     0.090000     1.0080   ; qtot  0.910
    78       HAL2     57    DPPGK    H8S     78     0.090000     1.0080   ; qtot  1.000
    79       CTL2     57    DPPGK    C29     79    -0.180000    12.0110   ; qtot  0.820
    80       HAL2     57    DPPGK    H9R     80     0.090000     1.0080   ; qtot  0.910
    81       HAL2     57    DPPGK    H9S     81     0.090000     1.0080   ; qtot  1.000
    82       CTL2     57    DPPGK   C210     82    -0.180000    12.0110   ; qtot  0.820
    83       HAL2     57    DPPGK   H10R     83     0.090000     1.0080   ; qtot  0.910
    84       HAL2     57    DPPGK   H10S     84     0.090000     1.0080   ; qtot  1.000
    85       CTL2     57    DPPGK   C211     85    -0.180000    12.0110   ; qtot  0.820
    86       HAL2     57    DPPGK   H11R     86     0.090000     1.0080   ; qtot  0.910
    87       HAL2     57    DPPGK   H11S     87     0.090000     1.0080   ; qtot  1.000
    88       CTL2     57    DPPGK   C212     88    -0.180000    12.0110   ; qtot  0.820
    89       HAL2     57    DPPGK   H12R     89     0.090000     1.0080   ; qtot  0.910
    90       HAL2     57    DPPGK   H12S     90     0.090000     1.0080   ; qtot  1.000
    91       CTL2     57    DPPGK   C213     91    -0.180000    12.0110   ; qtot  0.820
    92       HAL2     57    DPPGK   H13R     92     0.090000     1.0080   ; qtot  0.910
    93       HAL2     57    DPPGK   H13S     93     0.090000     1.0080   ; qtot  1.000
    94       CTL2     57    DPPGK   C214     94    -0.180000    12.0110   ; qtot  0.820
    95       HAL2     57    DPPGK   H14R     95     0.090000     1.0080   ; qtot  0.910
    96       HAL2     57    DPPGK   H14S     96     0.090000     1.0080   ; qtot  1.000
    97       CTL2     57    DPPGK   C215     97    -0.180000    12.0110   ; qtot  0.820
    98       HAL2     57    DPPGK   H15R     98     0.090000     1.0080   ; qtot  0.910
    99       HAL2     57    DPPGK   H15S     99     0.090000     1.0080   ; qtot  1.000
   100       CTL3     57    DPPGK   C216    100    -0.270000    12.0110   ; qtot  0.730
   101       HAL3     57    DPPGK   H16R    101     0.090000     1.0080   ; qtot  0.820
   102       HAL3     57    DPPGK   H16S    102     0.090000     1.0080   ; qtot  0.910
   103       HAL3     57    DPPGK   H16T    103     0.090000     1.0080   ; qtot  1.000
   104       CTL2     57    DPPGK    C33    104    -0.180000    12.0110   ; qtot  0.820
   105       HAL2     57    DPPGK    H3X    105     0.090000     1.0080   ; qtot  0.910
   106       HAL2     57    DPPGK    H3Y    106     0.090000     1.0080   ; qtot  1.000
   107       CTL2     57    DPPGK    C34    107    -0.180000    12.0110   ; qtot  0.820
   108       HAL2     57    DPPGK    H4X    108     0.090000     1.0080   ; qtot  0.910
   109       HAL2     57    DPPGK    H4Y    109     0.090000     1.0080   ; qtot  1.000
   110       CTL2     57    DPPGK    C35    110    -0.180000    12.0110   ; qtot  0.820
   111       HAL2     57    DPPGK    H5X    111     0.090000     1.0080   ; qtot  0.910
   112       HAL2     57    DPPGK    H5Y    112     0.090000     1.0080   ; qtot  1.000
   113       CTL2     57    DPPGK    C36    113    -0.180000    12.0110   ; qtot  0.820
   114       HAL2     57    DPPGK    H6X    114     0.090000     1.0080   ; qtot  0.910
   115       HAL2     57    DPPGK    H6Y    115     0.090000     1.0080   ; qtot  1.000
   116       CTL2     57    DPPGK    C37    116    -0.180000    12.0110   ; qtot  0.820
   117       HAL2     57    DPPGK    H7X    117     0.090000     1.0080   ; qtot  0.910
   118       HAL2     57    DPPGK    H7Y    118     0.090000     1.0080   ; qtot  1.000
   119       CTL2     57    DPPGK    C38    119    -0.180000    12.0110   ; qtot  0.820
   120       HAL2     57    DPPGK    H8X    120     0.090000     1.0080   ; qtot  0.910
   121       HAL2     57    DPPGK    H8Y    121     0.090000     1.0080   ; qtot  1.000
   122       CTL2     57    DPPGK    C39    122    -0.180000    12.0110   ; qtot  0.820
   123       HAL2     57    DPPGK    H9X    123     0.090000     1.0080   ; qtot  0.910
   124       HAL2     57    DPPGK    H9Y    124     0.090000     1.0080   ; qtot  1.000
   125       CTL2     57    DPPGK   C310    125    -0.180000    12.0110   ; qtot  0.820
   126       HAL2     57    DPPGK   H10X    126     0.090000     1.0080   ; qtot  0.910
   127       HAL2     57    DPPGK   H10Y    127     0.090000     1.0080   ; qtot  1.000
   128       CTL2     57    DPPGK   C311    128    -0.180000    12.0110   ; qtot  0.820
   129       HAL2     57    DPPGK   H11X    129     0.090000     1.0080   ; qtot  0.910
   130       HAL2     57    DPPGK   H11Y    130     0.090000     1.0080   ; qtot  1.000
   131       CTL2     57    DPPGK   C312    131    -0.180000    12.0110   ; qtot  0.820
   132       HAL2     57    DPPGK   H12X    132     0.090000     1.0080   ; qtot  0.910
   133       HAL2     57    DPPGK   H12Y    133     0.090000     1.0080   ; qtot  1.000
   134       CTL2     57    DPPGK   C313    134    -0.180000    12.0110   ; qtot  0.820
   135       HAL2     57    DPPGK   H13X    135     0.090000     1.0080   ; qtot  0.910
   136       HAL2     57    DPPGK   H13Y    136     0.090000     1.0080   ; qtot  1.000
   137       CTL2     57    DPPGK   C314    137    -0.180000    12.0110   ; qtot  0.820
   138       HAL2     57    DPPGK   H14X    138     0.090000     1.0080   ; qtot  0.910
   139       HAL2     57    DPPGK   H14Y    139     0.090000     1.0080   ; qtot  1.000
   140       CTL2     57    DPPGK   C315    140    -0.180000    12.0110   ; qtot  0.820
   141       HAL2     57    DPPGK   H15X    141     0.090000     1.0080   ; qtot  0.910
   142       HAL2     57    DPPGK   H15Y    142     0.090000     1.0080   ; qtot  1.000
   143       CTL3     57    DPPGK   C316    143    -0.270000    12.0110   ; qtot  0.730
   144       HAL3     57    DPPGK   H16X    144     0.090000     1.0080   ; qtot  0.820
   145       HAL3     57    DPPGK   H16Y    145     0.090000     1.0080   ; qtot  0.910
   146       HAL3     57    DPPGK   H16Z    146     0.090000     1.0080   ; qtot  1.000

[ bonds ]
; ai	aj	funct	b0	Kb
    2     1     1
    3     1     1
    4     1     1
    1     5     1
    5     6     1
    7     5     1
   23     5     1
    7     8     1
    7     9     1
   10     7     1
   10    11     1
   10    12     1
   13    10     1
   13    14     1
   13    15     1
   16    13     1
   16    17     1
   16    18     1
   19    16     1
   19    20     1
   19    21     1
   19    22     1
   24    23     1
   23    28     1
   25    26     1
   25    27     1
   28    25     1
   25    29     1
   29    30     1
   31    29     1
   29    33     1
   32    31     1
   33    34     1
   33    35     1
   33    39     1
   36    37     1
   36    38     1
   39    36     1
   36    40     1
   40    41     1
   41    42     1
   41    43     1
   41    44     1
   44    45     1
   44    46     1
   44    52     1
   46    47     1
   47    48     1
   47    49     1
   49    50     1
   49    51     1
   49    61     1
   52    53     1
   52    54     1
   52    55     1
   55    56     1
   56    57     1
   56    58     1
   58    59     1
   58    60     1
   58   104     1
   61    62     1
   61    63     1
   61    64     1
   64    65     1
   64    66     1
   64    67     1
   67    68     1
   67    69     1
   67    70     1
   70    71     1
   70    72     1
   70    73     1
   73    74     1
   73    75     1
   73    76     1
   76    77     1
   76    78     1
   76    79     1
   79    80     1
   79    81     1
   79    82     1
   82    83     1
   82    84     1
   82    85     1
   85    86     1
   85    87     1
   85    88     1
   88    89     1
   88    90     1
   88    91     1
   91    92     1
   91    93     1
   91    94     1
   94    95     1
   94    96     1
   94    97     1
   97    98     1
   97    99     1
   97   100     1
  100   101     1
  100   102     1
  100   103     1
  104   105     1
  104   106     1
  104   107     1
  107   108     1
  107   109     1
  107   110     1
  110   111     1
  110   112     1
  110   113     1
  113   114     1
  113   115     1
  113   116     1
  116   117     1
  116   118     1
  116   119     1
  119   120     1
  119   121     1
  119   122     1
  122   123     1
  122   124     1
  122   125     1
  125   126     1
  125   127     1
  125   128     1
  128   129     1
  128   130     1
  128   131     1
  131   132     1
  131   133     1
  131   134     1
  134   135     1
  134   136     1
  134   137     1
  137   138     1
  137   139     1
  137   140     1
  140   141     1
  140   142     1
  140   143     1
  143   144     1
  143   145     1
  143   146     1

[ pairs ]
; ai	aj	funct	c6	c12 or
; ai	aj	funct	fudgeQQ	q1	q2	c6	c12
    1     8     1
    1     9     1
    1    10     1
    1    24     1
    1    28     1
    2     6     1
    2     7     1
    2    23     1
    3     6     1
    3     7     1
    3    23     1
    4     6     1
    4     7     1
    4    23     1
    5    11     1
    5    12     1
    5    13     1
    5    25     1
    6     8     1
    6     9     1
    6    10     1
    6    24     1
    6    28     1
    7    14     1
    7    15     1
    7    16     1
    7    24     1
    7    28     1
    8    11     1
    8    12     1
    8    13     1
    8    23     1
    9    11     1
    9    12     1
    9    13     1
    9    23     1
   10    17     1
   10    18     1
   10    19     1
   10    23     1
   11    14     1
   11    15     1
   11    16     1
   12    14     1
   12    15     1
   12    16     1
   13    20     1
   13    21     1
   13    22     1
   14    17     1
   14    18     1
   14    19     1
   15    17     1
   15    18     1
   15    19     1
   17    20     1
   17    21     1
   17    22     1
   18    20     1
   18    21     1
   18    22     1
   23    26     1
   23    27     1
   23    29     1
   24    25     1
   25    32     1
   25    34     1
   25    35     1
   25    39     1
   26    30     1
   26    31     1
   26    33     1
   27    30     1
   27    31     1
   27    33     1
   28    30     1
   28    31     1
   28    33     1
   29    36     1
   30    32     1
   30    34     1
   30    35     1
   30    39     1
   31    34     1
   31    35     1
   31    39     1
   32    33     1
   33    37     1
   33    38     1
   33    40     1
   34    36     1
   35    36     1
   36    42     1
   36    43     1
   36    44     1
   37    41     1
   38    41     1
   39    41     1
   40    45     1
   40    46     1
   40    52     1
   41    47     1
   41    53     1
   41    54     1
   41    55     1
   42    45     1
   42    46     1
   42    52     1
   43    45     1
   43    46     1
   43    52     1
   44    48     1
   44    49     1
   44    56     1
   45    47     1
   45    53     1
   45    54     1
   45    55     1
   46    50     1
   46    51     1
   46    53     1
   46    54     1
   46    55     1
   46    61     1
   47    52     1
   47    62     1
   47    63     1
   47    64     1
   48    50     1
   48    51     1
   48    61     1
   49    65     1
   49    66     1
   49    67     1
   50    62     1
   50    63     1
   50    64     1
   51    62     1
   51    63     1
   51    64     1
   52    57     1
   52    58     1
   53    56     1
   54    56     1
   55    59     1
   55    60     1
   55   104     1
   56   105     1
   56   106     1
   56   107     1
   57    59     1
   57    60     1
   57   104     1
   58   108     1
   58   109     1
   58   110     1
   59   105     1
   59   106     1
   59   107     1
   60   105     1
   60   106     1
   60   107     1
   61    68     1
   61    69     1
   61    70     1
   62    65     1
   62    66     1
   62    67     1
   63    65     1
   63    66     1
   63    67     1
   64    71     1
   64    72     1
   64    73     1
   65    68     1
   65    69     1
   65    70     1
   66    68     1
   66    69     1
   66    70     1
   67    74     1
   67    75     1
   67    76     1
   68    71     1
   68    72     1
   68    73     1
   69    71     1
   69    72     1
   69    73     1
   70    77     1
   70    78     1
   70    79     1
   71    74     1
   71    75     1
   71    76     1
   72    74     1
   72    75     1
   72    76     1
   73    80     1
   73    81     1
   73    82     1
   74    77     1
   74    78     1
   74    79     1
   75    77     1
   75    78     1
   75    79     1
   76    83     1
   76    84     1
   76    85     1
   77    80     1
   77    81     1
   77    82     1
   78    80     1
   78    81     1
   78    82     1
   79    86     1
   79    87     1
   79    88     1
   80    83     1
   80    84     1
   80    85     1
   81    83     1
   81    84     1
   81    85     1
   82    89     1
   82    90     1
   82    91     1
   83    86     1
   83    87     1
   83    88     1
   84    86     1
   84    87     1
   84    88     1
   85    92     1
   85    93     1
   85    94     1
   86    89     1
   86    90     1
   86    91     1
   87    89     1
   87    90     1
   87    91     1
   88    95     1
   88    96     1
   88    97     1
   89    92     1
   89    93     1
   89    94     1
   90    92     1
   90    93     1
   90    94     1
   91    98     1
   91    99     1
   91   100     1
   92    95     1
   92    96     1
   92    97     1
   93    95     1
   93    96     1
   93    97     1
   94   101     1
   94   102     1
   94   103     1
   95    98     1
   95    99     1
   95   100     1
   96    98     1
   96    99     1
   96   100     1
   98   101     1
   98   102     1
   98   103     1
   99   101     1
   99   102     1
   99   103     1
  104   111     1
  104   112     1
  104   113     1
  105   108     1
  105   109     1
  105   110     1
  106   108     1
  106   109     1
  106   110     1
  107   114     1
  107   115     1
  107   116     1
  108   111     1
  108   112     1
  108   113     1
  109   111     1
  109   112     1
  109   113     1
  110   117     1
  110   118     1
  110   119     1
  111   114     1
  111   115     1
  111   116     1
  112   114     1
  112   115     1
  112   116     1
  113   120     1
  113   121     1
  113   122     1
  114   117     1
  114   118     1
  114   119     1
  115   117     1
  115   118     1
  115   119     1
  116   123     1
  116   124     1
  116   125     1
  117   120     1
  117   121     1
  117   122     1
  118   120     1
  118   121     1
  118   122     1
  119   126     1
  119   127     1
  119   128     1
  120   123     1
  120   124     1
  120   125     1
  121   123     1
  121   124     1
  121   125     1
  122   129     1
  122   130     1
  122   131     1
  123   126     1
  123   127     1
  123   128     1
  124   126     1
  124   127     1
  124   128     1
  125   132     1
  125   133     1
  125   134     1
  126   129     1
  126   130     1
  126   131     1
  127   129     1
  127   130     1
  127   131     1
  128   135     1
  128   136     1
  128   137     1
  129   132     1
  129   133     1
  129   134     1
  130   132     1
  130   133     1
  130   134     1
  131   138     1
  131   139     1
  131   140     1
  132   135     1
  132   136     1
  132   137     1
  133   135     1
  133   136     1
  133   137     1
  134   141     1
  134   142     1
  134   143     1
  135   138     1
  135   139     1
  135   140     1
  136   138     1
  136   139     1
  136   140     1
  137   144     1
  137   145     1
  137   146     1
  138   141     1
  138   142     1
  138   143     1
  139   141     1
  139   142     1
  139   143     1
  141   144     1
  141   145     1
  141   146     1
  142   144     1
  142   145     1
  142   146     1

[ angles ] 
; ai	aj	ak	funct	th0	cth	S0	Kub
    2     1     3     5
    2     1     4     5
    2     1     5     5
    3     1     4     5
    3     1     5     5
    4     1     5     5
    1     5     6     5
    1     5     7     5
    1     5    23     5
    6     5     7     5
    6     5    23     5
    7     5    23     5
    5     7     8     5
    5     7     9     5
    5     7    10     5
    8     7     9     5
    8     7    10     5
    9     7    10     5
    7    10    11     5
    7    10    12     5
    7    10    13     5
   11    10    12     5
   11    10    13     5
   12    10    13     5
   10    13    14     5
   10    13    15     5
   10    13    16     5
   14    13    15     5
   14    13    16     5
   15    13    16     5
   13    16    17     5
   13    16    18     5
   13    16    19     5
   17    16    18     5
   17    16    19     5
   18    16    19     5
   16    19    20     5
   16    19    21     5
   16    19    22     5
   20    19    21     5
   20    19    22     5
   21    19    22     5
    5    23    24     5
    5    23    28     5
   24    23    28     5
   26    25    27     5
   26    25    28     5
   26    25    29     5
   27    25    28     5
   27    25    29     5
   28    25    29     5
   23    28    25     5
   25    29    30     5
   25    29    31     5
   25    29    33     5
   30    29    31     5
   30    29    33     5
   31    29    33     5
   29    31    32     5
   29    33    34     5
   29    33    35     5
   29    33    39     5
   34    33    35     5
   34    33    39     5
   35    33    39     5
   37    36    38     5
   37    36    39     5
   37    36    40     5
   38    36    39     5
   38    36    40     5
   39    36    40     5
   33    39    36     5
   36    40    41     5
   40    41    42     5
   40    41    43     5
   40    41    44     5
   42    41    43     5
   42    41    44     5
   43    41    44     5
   41    44    45     5
   41    44    46     5
   41    44    52     5
   45    44    46     5
   45    44    52     5
   46    44    52     5
   44    46    47     5
   46    47    48     5
   46    47    49     5
   48    47    49     5
   47    49    50     5
   47    49    51     5
   47    49    61     5
   50    49    51     5
   50    49    61     5
   51    49    61     5
   44    52    53     5
   44    52    54     5
   44    52    55     5
   53    52    54     5
   53    52    55     5
   54    52    55     5
   52    55    56     5
   55    56    57     5
   55    56    58     5
   57    56    58     5
   56    58    59     5
   56    58    60     5
   56    58   104     5
   59    58    60     5
   59    58   104     5
   60    58   104     5
   49    61    62     5
   49    61    63     5
   49    61    64     5
   62    61    63     5
   62    61    64     5
   63    61    64     5
   61    64    65     5
   61    64    66     5
   61    64    67     5
   65    64    66     5
   65    64    67     5
   66    64    67     5
   64    67    68     5
   64    67    69     5
   64    67    70     5
   68    67    69     5
   68    67    70     5
   69    67    70     5
   67    70    71     5
   67    70    72     5
   67    70    73     5
   71    70    72     5
   71    70    73     5
   72    70    73     5
   70    73    74     5
   70    73    75     5
   70    73    76     5
   74    73    75     5
   74    73    76     5
   75    73    76     5
   73    76    77     5
   73    76    78     5
   73    76    79     5
   77    76    78     5
   77    76    79     5
   78    76    79     5
   76    79    80     5
   76    79    81     5
   76    79    82     5
   80    79    81     5
   80    79    82     5
   81    79    82     5
   79    82    83     5
   79    82    84     5
   79    82    85     5
   83    82    84     5
   83    82    85     5
   84    82    85     5
   82    85    86     5
   82    85    87     5
   82    85    88     5
   86    85    87     5
   86    85    88     5
   87    85    88     5
   85    88    89     5
   85    88    90     5
   85    88    91     5
   89    88    90     5
   89    88    91     5
   90    88    91     5
   88    91    92     5
   88    91    93     5
   88    91    94     5
   92    91    93     5
   92    91    94     5
   93    91    94     5
   91    94    95     5
   91    94    96     5
   91    94    97     5
   95    94    96     5
   95    94    97     5
   96    94    97     5
   94    97    98     5
   94    97    99     5
   94    97   100     5
   98    97    99     5
   98    97   100     5
   99    97   100     5
   97   100   101     5
   97   100   102     5
   97   100   103     5
  101   100   102     5
  101   100   103     5
  102   100   103     5
   58   104   105     5
   58   104   106     5
   58   104   107     5
  105   104   106     5
  105   104   107     5
  106   104   107     5
  104   107   108     5
  104   107   109     5
  104   107   110     5
  108   107   109     5
  108   107   110     5
  109   107   110     5
  107   110   111     5
  107   110   112     5
  107   110   113     5
  111   110   112     5
  111   110   113     5
  112   110   113     5
  110   113   114     5
  110   113   115     5
  110   113   116     5
  114   113   115     5
  114   113   116     5
  115   113   116     5
  113   116   117     5
  113   116   118     5
  113   116   119     5
  117   116   118     5
  117   116   119     5
  118   116   119     5
  116   119   120     5
  116   119   121     5
  116   119   122     5
  120   119   121     5
  120   119   122     5
  121   119   122     5
  119   122   123     5
  119   122   124     5
  119   122   125     5
  123   122   124     5
  123   122   125     5
  124   122   125     5
  122   125   126     5
  122   125   127     5
  122   125   128     5
  126   125   127     5
  126   125   128     5
  127   125   128     5
  125   128   129     5
  125   128   130     5
  125   128   131     5
  129   128   130     5
  129   128   131     5
  130   128   131     5
  128   131   132     5
  128   131   133     5
  128   131   134     5
  132   131   133     5
  132   131   134     5
  133   131   134     5
  131   134   135     5
  131   134   136     5
  131   134   137     5
  135   134   136     5
  135   134   137     5
  136   134   137     5
  134   137   138     5
  134   137   139     5
  134   137   140     5
  138   137   139     5
  138   137   140     5
  139   137   140     5
  137   140   141     5
  137   140   142     5
  137   140   143     5
  141   140   142     5
  141   140   143     5
  142   140   143     5
  140   143   144     5
  140   143   145     5
  140   143   146     5
  144   143   145     5
  144   143   146     5
  145   143   146     5

[ dihedrals ]
; ai	aj	ak	al	funct	phi0	cp	mult
    2     1     5     6     9
    2     1     5     7     9
    2     1     5    23     9
    3     1     5     6     9
    3     1     5     7     9
    3     1     5    23     9
    4     1     5     6     9
    4     1     5     7     9
    4     1     5    23     9
    1     5     7     8     9
    1     5     7     9     9
    1     5     7    10     9
    6     5     7     8     9
    6     5     7     9     9
    6     5     7    10     9
    1     5    23    24     9
    1     5    23    28     9
    6     5    23    24     9
    6     5    23    28     9
    7     5    23    24     9
    7     5    23    28     9
    8     7     5    23     9
    9     7     5    23     9
   10     7     5    23     9
    5     7    10    11     9
    5     7    10    12     9
    5     7    10    13     9
    8     7    10    11     9
    8     7    10    12     9
    8     7    10    13     9
    9     7    10    11     9
    9     7    10    12     9
    9     7    10    13     9
    7    10    13    14     9
    7    10    13    15     9
    7    10    13    16     9
   11    10    13    14     9
   11    10    13    15     9
   11    10    13    16     9
   12    10    13    14     9
   12    10    13    15     9
   12    10    13    16     9
   10    13    16    17     9
   10    13    16    18     9
   10    13    16    19     9
   14    13    16    17     9
   14    13    16    18     9
   14    13    16    19     9
   15    13    16    17     9
   15    13    16    18     9
   15    13    16    19     9
   13    16    19    20     9
   13    16    19    21     9
   13    16    19    22     9
   17    16    19    20     9
   17    16    19    21     9
   17    16    19    22     9
   18    16    19    20     9
   18    16    19    21     9
   18    16    19    22     9
    5    23    28    25     9
   24    23    28    25     9
   26    25    29    30     9
   26    25    29    31     9
   26    25    29    33     9
   27    25    29    30     9
   27    25    29    31     9
   27    25    29    33     9
   28    25    29    30     9
   28    25    29    31     9
   28    25    29    33     9
   23    28    25    26     9
   23    28    25    27     9
   23    28    25    29     9
   25    29    31    32     9
   30    29    31    32     9
   25    29    33    34     9
   25    29    33    35     9
   25    29    33    39     9
   30    29    33    34     9
   30    29    33    35     9
   30    29    33    39     9
   31    29    33    34     9
   31    29    33    35     9
   31    29    33    39     9
   32    31    29    33     9
   29    33    39    36     9
   34    33    39    36     9
   35    33    39    36     9
   37    36    40    41     9
   38    36    40    41     9
   39    36    40    41     9
   33    39    36    37     9
   33    39    36    38     9
   33    39    36    40     9
   36    40    41    42     9
   36    40    41    43     9
   36    40    41    44     9
   40    41    44    45     9
   40    41    44    46     9
   40    41    44    52     9
   42    41    44    45     9
   42    41    44    46     9
   42    41    44    52     9
   43    41    44    45     9
   43    41    44    46     9
   43    41    44    52     9
   41    44    46    47     9
   45    44    46    47     9
   41    44    52    53     9
   41    44    52    54     9
   41    44    52    55     9
   45    44    52    53     9
   45    44    52    54     9
   45    44    52    55     9
   46    44    52    53     9
   46    44    52    54     9
   46    44    52    55     9
   47    46    44    52     9
   44    46    47    48     9
   44    46    47    49     9
   46    47    49    50     9
   46    47    49    51     9
   46    47    49    61     9
   48    47    49    50     9
   48    47    49    51     9
   48    47    49    61     9
   47    49    61    62     9
   47    49    61    63     9
   47    49    61    64     9
   50    49    61    62     9
   50    49    61    63     9
   50    49    61    64     9
   51    49    61    62     9
   51    49    61    63     9
   51    49    61    64     9
   44    52    55    56     9
   53    52    55    56     9
   54    52    55    56     9
   52    55    56    57     9
   52    55    56    58     9
   55    56    58    59     9
   55    56    58    60     9
   55    56    58   104     9
   57    56    58    59     9
   57    56    58    60     9
   57    56    58   104     9
   56    58   104   105     9
   56    58   104   106     9
   56    58   104   107     9
   59    58   104   105     9
   59    58   104   106     9
   59    58   104   107     9
   60    58   104   105     9
   60    58   104   106     9
   60    58   104   107     9
   49    61    64    65     9
   49    61    64    66     9
   49    61    64    67     9
   62    61    64    65     9
   62    61    64    66     9
   62    61    64    67     9
   63    61    64    65     9
   63    61    64    66     9
   63    61    64    67     9
   61    64    67    68     9
   61    64    67    69     9
   61    64    67    70     9
   65    64    67    68     9
   65    64    67    69     9
   65    64    67    70     9
   66    64    67    68     9
   66    64    67    69     9
   66    64    67    70     9
   64    67    70    71     9
   64    67    70    72     9
   64    67    70    73     9
   68    67    70    71     9
   68    67    70    72     9
   68    67    70    73     9
   69    67    70    71     9
   69    67    70    72     9
   69    67    70    73     9
   67    70    73    74     9
   67    70    73    75     9
   67    70    73    76     9
   71    70    73    74     9
   71    70    73    75     9
   71    70    73    76     9
   72    70    73    74     9
   72    70    73    75     9
   72    70    73    76     9
   70    73    76    77     9
   70    73    76    78     9
   70    73    76    79     9
   74    73    76    77     9
   74    73    76    78     9
   74    73    76    79     9
   75    73    76    77     9
   75    73    76    78     9
   75    73    76    79     9
   73    76    79    80     9
   73    76    79    81     9
   73    76    79    82     9
   77    76    79    80     9
   77    76    79    81     9
   77    76    79    82     9
   78    76    79    80     9
   78    76    79    81     9
   78    76    79    82     9
   76    79    82    83     9
   76    79    82    84     9
   76    79    82    85     9
   80    79    82    83     9
   80    79    82    84     9
   80    79    82    85     9
   81    79    82    83     9
   81    79    82    84     9
   81    79    82    85     9
   79    82    85    86     9
   79    82    85    87     9
   79    82    85    88     9
   83    82    85    86     9
   83    82    85    87     9
   83    82    85    88     9
   84    82    85    86     9
   84    82    85    87     9
   84    82    85    88     9
   82    85    88    89     9
   82    85    88    90     9
   82    85    88    91     9
   86    85    88    89     9
   86    85    88    90     9
   86    85    88    91     9
   87    85    88    89     9
   87    85    88    90     9
   87    85    88    91     9
   85    88    91    92     9
   85    88    91    93     9
   85    88    91    94     9
   89    88    91    92     9
   89    88    91    93     9
   89    88    91    94     9
   90    88    91    92     9
   90    88    91    93     9
   90    88    91    94     9
   88    91    94    95     9
   88    91    94    96     9
   88    91    94    97     9
   92    91    94    95     9
   92    91    94    96     9
   92    91    94    97     9
   93    91    94    95     9
   93    91    94    96     9
   93    91    94    97     9
   91    94    97    98     9
   91    94    97    99     9
   91    94    97   100     9
   95    94    97    98     9
   95    94    97    99     9
   95    94    97   100     9
   96    94    97    98     9
   96    94    97    99     9
   96    94    97   100     9
   94    97   100   101     9
   94    97   100   102     9
   94    97   100   103     9
   98    97   100   101     9
   98    97   100   102     9
   98    97   100   103     9
   99    97   100   101     9
   99    97   100   102     9
   99    97   100   103     9
   58   104   107   108     9
   58   104   107   109     9
   58   104   107   110     9
  105   104   107   108     9
  105   104   107   109     9
  105   104   107   110     9
  106   104   107   108     9
  106   104   107   109     9
  106   104   107   110     9
  104   107   110   111     9
  104   107   110   112     9
  104   107   110   113     9
  108   107   110   111     9
  108   107   110   112     9
  108   107   110   113     9
  109   107   110   111     9
  109   107   110   112     9
  109   107   110   113     9
  107   110   113   114     9
  107   110   113   115     9
  107   110   113   116     9
  111   110   113   114     9
  111   110   113   115     9
  111   110   113   116     9
  112   110   113   114     9
  112   110   113   115     9
  112   110   113   116     9
  110   113   116   117     9
  110   113   116   118     9
  110   113   116   119     9
  114   113   116   117     9
  114   113   116   118     9
  114   113   116   119     9
  115   113   116   117     9
  115   113   116   118     9
  115   113   116   119     9
  113   116   119   120     9
  113   116   119   121     9
  113   116   119   122     9
  117   116   119   120     9
  117   116   119   121     9
  117   116   119   122     9
  118   116   119   120     9
  118   116   119   121     9
  118   116   119   122     9
  116   119   122   123     9
  116   119   122   124     9
  116   119   122   125     9
  120   119   122   123     9
  120   119   122   124     9
  120   119   122   125     9
  121   119   122   123     9
  121   119   122   124     9
  121   119   122   125     9
  119   122   125   126     9
  119   122   125   127     9
  119   122   125   128     9
  123   122   125   126     9
  123   122   125   127     9
  123   122   125   128     9
  124   122   125   126     9
  124   122   125   127     9
  124   122   125   128     9
  122   125   128   129     9
  122   125   128   130     9
  122   125   128   131     9
  126   125   128   129     9
  126   125   128   130     9
  126   125   128   131     9
  127   125   128   129     9
  127   125   128   130     9
  127   125   128   131     9
  125   128   131   132     9
  125   128   131   133     9
  125   128   131   134     9
  129   128   131   132     9
  129   128   131   133     9
  129   128   131   134     9
  130   128   131   132     9
  130   128   131   133     9
  130   128   131   134     9
  128   131   134   135     9
  128   131   134   136     9
  128   131   134   137     9
  132   131   134   135     9
  132   131   134   136     9
  132   131   134   137     9
  133   131   134   135     9
  133   131   134   136     9
  133   131   134   137     9
  131   134   137   138     9
  131   134   137   139     9
  131   134   137   140     9
  135   134   137   138     9
  135   134   137   139     9
  135   134   137   140     9
  136   134   137   138     9
  136   134   137   139     9
  136   134   137   140     9
  134   137   140   141     9
  134   137   140   142     9
  134   137   140   143     9
  138   137   140   141     9
  138   137   140   142     9
  138   137   140   143     9
  139   137   140   141     9
  139   137   140   142     9
  139   137   140   143     9
  137   140   143   144     9
  137   140   143   145     9
  137   140   143   146     9
  141   140   143   144     9
  141   140   143   145     9
  141   140   143   146     9
  142   140   143   144     9
  142   140   143   145     9
  142   140   143   146     9

[ dihedrals ]
; ai	aj	ak	al	funct	q0	cq
   47    46    49    48     2
   56    55    58    57     2

#ifdef POSRES
[ position_restraints ]
   36     1     0.0             0.0            POSRES_FC_LIPID
#endif

#ifdef DIHRES
[ dihedral_restraints ]
    1     7     5    23     1   -120.0      2.5       DIHRES_FC
   25    31    29    33     1    120.0      2.5       DIHRES_FC
   41    52    44    46     1   -120.0      2.5       DIHRES_FC
#endif
