;;
;; Generated by CHARMM-GUI FF-Converter
;;
;; Correspondance:
;; jul316@lehigh.edu or wonpil@lehigh.edu
;;
;; GROMACS topology file for DSMC3H
;;


[ moleculetype ]
; name	nrexcl
DSMC3H	     3

[ atoms ]
; nr	type	resnr	residu	atom	cgnr	charge	mass
     1      NG3P1    212   DSMC3H     N1      1    -0.565000    14.0070   ; qtot -0.565
     2       HGP2    212   DSMC3H    HN4      2     0.320000     1.0080   ; qtot -0.245
     3      CG334    212   DSMC3H    CN1      3     0.145000    12.0110   ; qtot -0.100
     4       HGA3    212   DSMC3H   HN11      4     0.090000     1.0080   ; qtot -0.010
     5       HGA3    212   DSMC3H   HN12      5     0.090000     1.0080   ; qtot  0.080
     6       HGA3    212   DSMC3H   HN13      6     0.090000     1.0080   ; qtot  0.170
     7      CG334    212   DSMC3H    CN2      7     0.145000    12.0110   ; qtot  0.315
     8       HGA3    212   DSMC3H   HN21      8     0.090000     1.0080   ; qtot  0.405
     9       HGA3    212   DSMC3H   HN22      9     0.090000     1.0080   ; qtot  0.495
    10       HGA3    212   DSMC3H   HN23     10     0.090000     1.0080   ; qtot  0.585
    11      CG324    212   DSMC3H     C1     11     0.235000    12.0110   ; qtot  0.820
    12       HGA2    212   DSMC3H    H11     12     0.090000     1.0080   ; qtot  0.910
    13       HGA2    212   DSMC3H    H12     13     0.090000     1.0080   ; qtot  1.000
    14      CG321    212   DSMC3H     C2     14    -0.180000    12.0110   ; qtot  0.820
    15       HGA2    212   DSMC3H    H21     15     0.090000     1.0080   ; qtot  0.910
    16       HGA2    212   DSMC3H    H22     16     0.090000     1.0080   ; qtot  1.000
    17       CTL2    212   DSMC3H     C3     17    -0.220000    12.0110   ; qtot  0.780
    18       HAL2    212   DSMC3H    H31     18     0.090000     1.0080   ; qtot  0.870
    19       HAL2    212   DSMC3H    H32     19     0.090000     1.0080   ; qtot  0.960
    20        OSL    212   DSMC3H     O1     20    -0.490000    15.9994   ; qtot  0.470
    21         CL    212   DSMC3H     C4     21     0.900000    12.0110   ; qtot  1.370
    22        OBL    212   DSMC3H     O2     22    -0.630000    15.9994   ; qtot  0.740
    23       CTL1    212   DSMC3H     C5     23     0.170000    12.0110   ; qtot  0.910
    24       HAL1    212   DSMC3H     H5     24     0.090000     1.0080   ; qtot  1.000
    25       CTL2    212   DSMC3H    C11     25    -0.180000    12.0110   ; qtot  0.820
    26       HAL2    212   DSMC3H   H11R     26     0.090000     1.0080   ; qtot  0.910
    27       HAL2    212   DSMC3H   H11S     27     0.090000     1.0080   ; qtot  1.000
    28       CTL2    212   DSMC3H    C12     28    -0.180000    12.0110   ; qtot  0.820
    29       HAL2    212   DSMC3H   H12R     29     0.090000     1.0080   ; qtot  0.910
    30       HAL2    212   DSMC3H   H12S     30     0.090000     1.0080   ; qtot  1.000
    31       CTL2    212   DSMC3H    C13     31    -0.180000    12.0110   ; qtot  0.820
    32       HAL2    212   DSMC3H   H13R     32     0.090000     1.0080   ; qtot  0.910
    33       HAL2    212   DSMC3H   H13S     33     0.090000     1.0080   ; qtot  1.000
    34       CTL2    212   DSMC3H    C14     34    -0.180000    12.0110   ; qtot  0.820
    35       HAL2    212   DSMC3H   H14R     35     0.090000     1.0080   ; qtot  0.910
    36       HAL2    212   DSMC3H   H14S     36     0.090000     1.0080   ; qtot  1.000
    37       CTL2    212   DSMC3H    C15     37    -0.180000    12.0110   ; qtot  0.820
    38       HAL2    212   DSMC3H   H15R     38     0.090000     1.0080   ; qtot  0.910
    39       HAL2    212   DSMC3H   H15S     39     0.090000     1.0080   ; qtot  1.000
    40       CTL2    212   DSMC3H    C16     40    -0.180000    12.0110   ; qtot  0.820
    41       HAL2    212   DSMC3H   H16R     41     0.090000     1.0080   ; qtot  0.910
    42       HAL2    212   DSMC3H   H16S     42     0.090000     1.0080   ; qtot  1.000
    43       CTL2    212   DSMC3H    C17     43    -0.180000    12.0110   ; qtot  0.820
    44       HAL2    212   DSMC3H   H17R     44     0.090000     1.0080   ; qtot  0.910
    45       HAL2    212   DSMC3H   H17S     45     0.090000     1.0080   ; qtot  1.000
    46       CTL2    212   DSMC3H    C18     46    -0.180000    12.0110   ; qtot  0.820
    47       HAL2    212   DSMC3H   H18R     47     0.090000     1.0080   ; qtot  0.910
    48       HAL2    212   DSMC3H   H18S     48     0.090000     1.0080   ; qtot  1.000
    49       CTL2    212   DSMC3H    C19     49    -0.180000    12.0110   ; qtot  0.820
    50       HAL2    212   DSMC3H   H19R     50     0.090000     1.0080   ; qtot  0.910
    51       HAL2    212   DSMC3H   H19S     51     0.090000     1.0080   ; qtot  1.000
    52       CTL2    212   DSMC3H   C110     52    -0.180000    12.0110   ; qtot  0.820
    53       HAL2    212   DSMC3H  H110R     53     0.090000     1.0080   ; qtot  0.910
    54       HAL2    212   DSMC3H  H110S     54     0.090000     1.0080   ; qtot  1.000
    55       CTL2    212   DSMC3H   C111     55    -0.180000    12.0110   ; qtot  0.820
    56       HAL2    212   DSMC3H  H111R     56     0.090000     1.0080   ; qtot  0.910
    57       HAL2    212   DSMC3H  H111S     57     0.090000     1.0080   ; qtot  1.000
    58       CTL2    212   DSMC3H   C112     58    -0.180000    12.0110   ; qtot  0.820
    59       HAL2    212   DSMC3H  H112R     59     0.090000     1.0080   ; qtot  0.910
    60       HAL2    212   DSMC3H  H112S     60     0.090000     1.0080   ; qtot  1.000
    61       CTL2    212   DSMC3H   C113     61    -0.180000    12.0110   ; qtot  0.820
    62       HAL2    212   DSMC3H  H113R     62     0.090000     1.0080   ; qtot  0.910
    63       HAL2    212   DSMC3H  H113S     63     0.090000     1.0080   ; qtot  1.000
    64       CTL2    212   DSMC3H   C114     64    -0.180000    12.0110   ; qtot  0.820
    65       HAL2    212   DSMC3H  H114R     65     0.090000     1.0080   ; qtot  0.910
    66       HAL2    212   DSMC3H  H114S     66     0.090000     1.0080   ; qtot  1.000
    67       CTL2    212   DSMC3H   C115     67    -0.180000    12.0110   ; qtot  0.820
    68       HAL2    212   DSMC3H  H115R     68     0.090000     1.0080   ; qtot  0.910
    69       HAL2    212   DSMC3H  H115S     69     0.090000     1.0080   ; qtot  1.000
    70       CTL2    212   DSMC3H   C116     70    -0.180000    12.0110   ; qtot  0.820
    71       HAL2    212   DSMC3H  H116R     71     0.090000     1.0080   ; qtot  0.910
    72       HAL2    212   DSMC3H  H116S     72     0.090000     1.0080   ; qtot  1.000
    73       CTL2    212   DSMC3H   C117     73    -0.180000    12.0110   ; qtot  0.820
    74       HAL2    212   DSMC3H  H117R     74     0.090000     1.0080   ; qtot  0.910
    75       HAL2    212   DSMC3H  H117S     75     0.090000     1.0080   ; qtot  1.000
    76       CTL3    212   DSMC3H   C118     76    -0.270000    12.0110   ; qtot  0.730
    77       HAL3    212   DSMC3H  H118R     77     0.090000     1.0080   ; qtot  0.820
    78       HAL3    212   DSMC3H  H118S     78     0.090000     1.0080   ; qtot  0.910
    79       HAL3    212   DSMC3H  H118T     79     0.090000     1.0080   ; qtot  1.000
    80       CTL2    212   DSMC3H    C21     80    -0.180000    12.0110   ; qtot  0.820
    81       HAL2    212   DSMC3H   H21R     81     0.090000     1.0080   ; qtot  0.910
    82       HAL2    212   DSMC3H   H21S     82     0.090000     1.0080   ; qtot  1.000
    83       CTL2    212   DSMC3H    C22     83    -0.180000    12.0110   ; qtot  0.820
    84       HAL2    212   DSMC3H   H22R     84     0.090000     1.0080   ; qtot  0.910
    85       HAL2    212   DSMC3H   H22S     85     0.090000     1.0080   ; qtot  1.000
    86       CTL2    212   DSMC3H    C23     86    -0.180000    12.0110   ; qtot  0.820
    87       HAL2    212   DSMC3H   H23R     87     0.090000     1.0080   ; qtot  0.910
    88       HAL2    212   DSMC3H   H23S     88     0.090000     1.0080   ; qtot  1.000
    89       CTL2    212   DSMC3H    C24     89    -0.180000    12.0110   ; qtot  0.820
    90       HAL2    212   DSMC3H   H24R     90     0.090000     1.0080   ; qtot  0.910
    91       HAL2    212   DSMC3H   H24S     91     0.090000     1.0080   ; qtot  1.000
    92       CTL2    212   DSMC3H    C25     92    -0.180000    12.0110   ; qtot  0.820
    93       HAL2    212   DSMC3H   H25R     93     0.090000     1.0080   ; qtot  0.910
    94       HAL2    212   DSMC3H   H25S     94     0.090000     1.0080   ; qtot  1.000
    95       CTL2    212   DSMC3H    C26     95    -0.180000    12.0110   ; qtot  0.820
    96       HAL2    212   DSMC3H   H26R     96     0.090000     1.0080   ; qtot  0.910
    97       HAL2    212   DSMC3H   H26S     97     0.090000     1.0080   ; qtot  1.000
    98       CTL2    212   DSMC3H    C27     98    -0.180000    12.0110   ; qtot  0.820
    99       HAL2    212   DSMC3H   H27R     99     0.090000     1.0080   ; qtot  0.910
   100       HAL2    212   DSMC3H   H27S    100     0.090000     1.0080   ; qtot  1.000
   101       CTL2    212   DSMC3H    C28    101    -0.180000    12.0110   ; qtot  0.820
   102       HAL2    212   DSMC3H   H28R    102     0.090000     1.0080   ; qtot  0.910
   103       HAL2    212   DSMC3H   H28S    103     0.090000     1.0080   ; qtot  1.000
   104       CTL2    212   DSMC3H    C29    104    -0.180000    12.0110   ; qtot  0.820
   105       HAL2    212   DSMC3H   H29R    105     0.090000     1.0080   ; qtot  0.910
   106       HAL2    212   DSMC3H   H29S    106     0.090000     1.0080   ; qtot  1.000
   107       CTL2    212   DSMC3H   C210    107    -0.180000    12.0110   ; qtot  0.820
   108       HAL2    212   DSMC3H  H210R    108     0.090000     1.0080   ; qtot  0.910
   109       HAL2    212   DSMC3H  H210S    109     0.090000     1.0080   ; qtot  1.000
   110       CTL2    212   DSMC3H   C211    110    -0.180000    12.0110   ; qtot  0.820
   111       HAL2    212   DSMC3H  H211R    111     0.090000     1.0080   ; qtot  0.910
   112       HAL2    212   DSMC3H  H211S    112     0.090000     1.0080   ; qtot  1.000
   113       CTL2    212   DSMC3H   C212    113    -0.180000    12.0110   ; qtot  0.820
   114       HAL2    212   DSMC3H  H212R    114     0.090000     1.0080   ; qtot  0.910
   115       HAL2    212   DSMC3H  H212S    115     0.090000     1.0080   ; qtot  1.000
   116       CTL2    212   DSMC3H   C213    116    -0.180000    12.0110   ; qtot  0.820
   117       HAL2    212   DSMC3H  H213R    117     0.090000     1.0080   ; qtot  0.910
   118       HAL2    212   DSMC3H  H213S    118     0.090000     1.0080   ; qtot  1.000
   119       CTL2    212   DSMC3H   C214    119    -0.180000    12.0110   ; qtot  0.820
   120       HAL2    212   DSMC3H  H214R    120     0.090000     1.0080   ; qtot  0.910
   121       HAL2    212   DSMC3H  H214S    121     0.090000     1.0080   ; qtot  1.000
   122       CTL2    212   DSMC3H   C215    122    -0.180000    12.0110   ; qtot  0.820
   123       HAL2    212   DSMC3H  H215R    123     0.090000     1.0080   ; qtot  0.910
   124       HAL2    212   DSMC3H  H215S    124     0.090000     1.0080   ; qtot  1.000
   125       CTL2    212   DSMC3H   C216    125    -0.180000    12.0110   ; qtot  0.820
   126       HAL2    212   DSMC3H  H216R    126     0.090000     1.0080   ; qtot  0.910
   127       HAL2    212   DSMC3H  H216S    127     0.090000     1.0080   ; qtot  1.000
   128       CTL2    212   DSMC3H   C217    128    -0.180000    12.0110   ; qtot  0.820
   129       HAL2    212   DSMC3H  H217R    129     0.090000     1.0080   ; qtot  0.910
   130       HAL2    212   DSMC3H  H217S    130     0.090000     1.0080   ; qtot  1.000
   131       CTL3    212   DSMC3H   C218    131    -0.270000    12.0110   ; qtot  0.730
   132       HAL3    212   DSMC3H  H218R    132     0.090000     1.0080   ; qtot  0.820
   133       HAL3    212   DSMC3H  H218S    133     0.090000     1.0080   ; qtot  0.910
   134       HAL3    212   DSMC3H  H218T    134     0.090000     1.0080   ; qtot  1.000

[ bonds ]
; ai	aj	funct	b0	Kb
    1     2     1
    1     3     1
    1     7     1
    1    11     1
    3     4     1
    3     5     1
    3     6     1
    7     8     1
    7     9     1
    7    10     1
   11    12     1
   11    13     1
   11    14     1
   14    15     1
   14    16     1
   14    17     1
   17    18     1
   17    19     1
   17    21     1
   21    20     1
   20    23     1
   21    22     1
   23    24     1
   23    25     1
   23    80     1
   25    26     1
   25    27     1
   25    28     1
   28    29     1
   28    30     1
   28    31     1
   31    32     1
   31    33     1
   31    34     1
   34    35     1
   34    36     1
   34    37     1
   37    38     1
   37    39     1
   37    40     1
   40    41     1
   40    42     1
   40    43     1
   43    44     1
   43    45     1
   43    46     1
   46    47     1
   46    48     1
   46    49     1
   49    50     1
   49    51     1
   49    52     1
   52    53     1
   52    54     1
   52    55     1
   55    56     1
   55    57     1
   55    58     1
   58    59     1
   58    60     1
   58    61     1
   61    62     1
   61    63     1
   61    64     1
   64    65     1
   64    66     1
   64    67     1
   67    68     1
   67    69     1
   67    70     1
   70    71     1
   70    72     1
   70    73     1
   73    74     1
   73    75     1
   73    76     1
   76    77     1
   76    78     1
   76    79     1
   80    81     1
   80    82     1
   80    83     1
   83    84     1
   83    85     1
   83    86     1
   86    87     1
   86    88     1
   86    89     1
   89    90     1
   89    91     1
   89    92     1
   92    93     1
   92    94     1
   92    95     1
   95    96     1
   95    97     1
   95    98     1
   98    99     1
   98   100     1
   98   101     1
  101   102     1
  101   103     1
  101   104     1
  104   105     1
  104   106     1
  104   107     1
  107   108     1
  107   109     1
  107   110     1
  110   111     1
  110   112     1
  110   113     1
  113   114     1
  113   115     1
  113   116     1
  116   117     1
  116   118     1
  116   119     1
  119   120     1
  119   121     1
  119   122     1
  122   123     1
  122   124     1
  122   125     1
  125   126     1
  125   127     1
  125   128     1
  128   129     1
  128   130     1
  128   131     1
  131   132     1
  131   133     1
  131   134     1

[ pairs ]
; ai	aj	funct	c6	c12 or
; ai	aj	funct	fudgeQQ	q1	q2	c6	c12
    1    15     1
    1    16     1
    1    17     1
    2     4     1
    2     5     1
    2     6     1
    2     8     1
    2     9     1
    2    10     1
    2    12     1
    2    13     1
    2    14     1
    3     8     1
    3     9     1
    3    10     1
    3    12     1
    3    13     1
    3    14     1
    4     7     1
    4    11     1
    5     7     1
    5    11     1
    6     7     1
    6    11     1
    7    12     1
    7    13     1
    7    14     1
    8    11     1
    9    11     1
   10    11     1
   11    18     1
   11    19     1
   11    21     1
   12    15     1
   12    16     1
   12    17     1
   13    15     1
   13    16     1
   13    17     1
   14    20     1
   14    22     1
   15    18     1
   15    19     1
   15    21     1
   16    18     1
   16    19     1
   16    21     1
   17    23     1
   18    20     1
   18    22     1
   19    20     1
   19    22     1
   20    26     1
   20    27     1
   20    28     1
   20    81     1
   20    82     1
   20    83     1
   21    24     1
   21    25     1
   21    80     1
   22    23     1
   23    29     1
   23    30     1
   23    31     1
   23    84     1
   23    85     1
   23    86     1
   24    26     1
   24    27     1
   24    28     1
   24    81     1
   24    82     1
   24    83     1
   25    32     1
   25    33     1
   25    34     1
   25    81     1
   25    82     1
   25    83     1
   26    29     1
   26    30     1
   26    31     1
   26    80     1
   27    29     1
   27    30     1
   27    31     1
   27    80     1
   28    35     1
   28    36     1
   28    37     1
   28    80     1
   29    32     1
   29    33     1
   29    34     1
   30    32     1
   30    33     1
   30    34     1
   31    38     1
   31    39     1
   31    40     1
   32    35     1
   32    36     1
   32    37     1
   33    35     1
   33    36     1
   33    37     1
   34    41     1
   34    42     1
   34    43     1
   35    38     1
   35    39     1
   35    40     1
   36    38     1
   36    39     1
   36    40     1
   37    44     1
   37    45     1
   37    46     1
   38    41     1
   38    42     1
   38    43     1
   39    41     1
   39    42     1
   39    43     1
   40    47     1
   40    48     1
   40    49     1
   41    44     1
   41    45     1
   41    46     1
   42    44     1
   42    45     1
   42    46     1
   43    50     1
   43    51     1
   43    52     1
   44    47     1
   44    48     1
   44    49     1
   45    47     1
   45    48     1
   45    49     1
   46    53     1
   46    54     1
   46    55     1
   47    50     1
   47    51     1
   47    52     1
   48    50     1
   48    51     1
   48    52     1
   49    56     1
   49    57     1
   49    58     1
   50    53     1
   50    54     1
   50    55     1
   51    53     1
   51    54     1
   51    55     1
   52    59     1
   52    60     1
   52    61     1
   53    56     1
   53    57     1
   53    58     1
   54    56     1
   54    57     1
   54    58     1
   55    62     1
   55    63     1
   55    64     1
   56    59     1
   56    60     1
   56    61     1
   57    59     1
   57    60     1
   57    61     1
   58    65     1
   58    66     1
   58    67     1
   59    62     1
   59    63     1
   59    64     1
   60    62     1
   60    63     1
   60    64     1
   61    68     1
   61    69     1
   61    70     1
   62    65     1
   62    66     1
   62    67     1
   63    65     1
   63    66     1
   63    67     1
   64    71     1
   64    72     1
   64    73     1
   65    68     1
   65    69     1
   65    70     1
   66    68     1
   66    69     1
   66    70     1
   67    74     1
   67    75     1
   67    76     1
   68    71     1
   68    72     1
   68    73     1
   69    71     1
   69    72     1
   69    73     1
   70    77     1
   70    78     1
   70    79     1
   71    74     1
   71    75     1
   71    76     1
   72    74     1
   72    75     1
   72    76     1
   74    77     1
   74    78     1
   74    79     1
   75    77     1
   75    78     1
   75    79     1
   80    87     1
   80    88     1
   80    89     1
   81    84     1
   81    85     1
   81    86     1
   82    84     1
   82    85     1
   82    86     1
   83    90     1
   83    91     1
   83    92     1
   84    87     1
   84    88     1
   84    89     1
   85    87     1
   85    88     1
   85    89     1
   86    93     1
   86    94     1
   86    95     1
   87    90     1
   87    91     1
   87    92     1
   88    90     1
   88    91     1
   88    92     1
   89    96     1
   89    97     1
   89    98     1
   90    93     1
   90    94     1
   90    95     1
   91    93     1
   91    94     1
   91    95     1
   92    99     1
   92   100     1
   92   101     1
   93    96     1
   93    97     1
   93    98     1
   94    96     1
   94    97     1
   94    98     1
   95   102     1
   95   103     1
   95   104     1
   96    99     1
   96   100     1
   96   101     1
   97    99     1
   97   100     1
   97   101     1
   98   105     1
   98   106     1
   98   107     1
   99   102     1
   99   103     1
   99   104     1
  100   102     1
  100   103     1
  100   104     1
  101   108     1
  101   109     1
  101   110     1
  102   105     1
  102   106     1
  102   107     1
  103   105     1
  103   106     1
  103   107     1
  104   111     1
  104   112     1
  104   113     1
  105   108     1
  105   109     1
  105   110     1
  106   108     1
  106   109     1
  106   110     1
  107   114     1
  107   115     1
  107   116     1
  108   111     1
  108   112     1
  108   113     1
  109   111     1
  109   112     1
  109   113     1
  110   117     1
  110   118     1
  110   119     1
  111   114     1
  111   115     1
  111   116     1
  112   114     1
  112   115     1
  112   116     1
  113   120     1
  113   121     1
  113   122     1
  114   117     1
  114   118     1
  114   119     1
  115   117     1
  115   118     1
  115   119     1
  116   123     1
  116   124     1
  116   125     1
  117   120     1
  117   121     1
  117   122     1
  118   120     1
  118   121     1
  118   122     1
  119   126     1
  119   127     1
  119   128     1
  120   123     1
  120   124     1
  120   125     1
  121   123     1
  121   124     1
  121   125     1
  122   129     1
  122   130     1
  122   131     1
  123   126     1
  123   127     1
  123   128     1
  124   126     1
  124   127     1
  124   128     1
  125   132     1
  125   133     1
  125   134     1
  126   129     1
  126   130     1
  126   131     1
  127   129     1
  127   130     1
  127   131     1
  129   132     1
  129   133     1
  129   134     1
  130   132     1
  130   133     1
  130   134     1

[ angles ] 
; ai	aj	ak	funct	th0	cth	S0	Kub
    2     1     3     5
    2     1     7     5
    2     1    11     5
    3     1     7     5
    3     1    11     5
    7     1    11     5
    1     3     4     5
    1     3     5     5
    1     3     6     5
    4     3     5     5
    4     3     6     5
    5     3     6     5
    1     7     8     5
    1     7     9     5
    1     7    10     5
    8     7     9     5
    8     7    10     5
    9     7    10     5
    1    11    12     5
    1    11    13     5
    1    11    14     5
   12    11    13     5
   12    11    14     5
   13    11    14     5
   11    14    15     5
   11    14    16     5
   11    14    17     5
   15    14    16     5
   15    14    17     5
   16    14    17     5
   14    17    18     5
   14    17    19     5
   14    17    21     5
   18    17    19     5
   18    17    21     5
   19    17    21     5
   21    20    23     5
   17    21    20     5
   17    21    22     5
   20    21    22     5
   20    23    24     5
   20    23    25     5
   20    23    80     5
   24    23    25     5
   24    23    80     5
   25    23    80     5
   23    25    26     5
   23    25    27     5
   23    25    28     5
   26    25    27     5
   26    25    28     5
   27    25    28     5
   25    28    29     5
   25    28    30     5
   25    28    31     5
   29    28    30     5
   29    28    31     5
   30    28    31     5
   28    31    32     5
   28    31    33     5
   28    31    34     5
   32    31    33     5
   32    31    34     5
   33    31    34     5
   31    34    35     5
   31    34    36     5
   31    34    37     5
   35    34    36     5
   35    34    37     5
   36    34    37     5
   34    37    38     5
   34    37    39     5
   34    37    40     5
   38    37    39     5
   38    37    40     5
   39    37    40     5
   37    40    41     5
   37    40    42     5
   37    40    43     5
   41    40    42     5
   41    40    43     5
   42    40    43     5
   40    43    44     5
   40    43    45     5
   40    43    46     5
   44    43    45     5
   44    43    46     5
   45    43    46     5
   43    46    47     5
   43    46    48     5
   43    46    49     5
   47    46    48     5
   47    46    49     5
   48    46    49     5
   46    49    50     5
   46    49    51     5
   46    49    52     5
   50    49    51     5
   50    49    52     5
   51    49    52     5
   49    52    53     5
   49    52    54     5
   49    52    55     5
   53    52    54     5
   53    52    55     5
   54    52    55     5
   52    55    56     5
   52    55    57     5
   52    55    58     5
   56    55    57     5
   56    55    58     5
   57    55    58     5
   55    58    59     5
   55    58    60     5
   55    58    61     5
   59    58    60     5
   59    58    61     5
   60    58    61     5
   58    61    62     5
   58    61    63     5
   58    61    64     5
   62    61    63     5
   62    61    64     5
   63    61    64     5
   61    64    65     5
   61    64    66     5
   61    64    67     5
   65    64    66     5
   65    64    67     5
   66    64    67     5
   64    67    68     5
   64    67    69     5
   64    67    70     5
   68    67    69     5
   68    67    70     5
   69    67    70     5
   67    70    71     5
   67    70    72     5
   67    70    73     5
   71    70    72     5
   71    70    73     5
   72    70    73     5
   70    73    74     5
   70    73    75     5
   70    73    76     5
   74    73    75     5
   74    73    76     5
   75    73    76     5
   73    76    77     5
   73    76    78     5
   73    76    79     5
   77    76    78     5
   77    76    79     5
   78    76    79     5
   23    80    81     5
   23    80    82     5
   23    80    83     5
   81    80    82     5
   81    80    83     5
   82    80    83     5
   80    83    84     5
   80    83    85     5
   80    83    86     5
   84    83    85     5
   84    83    86     5
   85    83    86     5
   83    86    87     5
   83    86    88     5
   83    86    89     5
   87    86    88     5
   87    86    89     5
   88    86    89     5
   86    89    90     5
   86    89    91     5
   86    89    92     5
   90    89    91     5
   90    89    92     5
   91    89    92     5
   89    92    93     5
   89    92    94     5
   89    92    95     5
   93    92    94     5
   93    92    95     5
   94    92    95     5
   92    95    96     5
   92    95    97     5
   92    95    98     5
   96    95    97     5
   96    95    98     5
   97    95    98     5
   95    98    99     5
   95    98   100     5
   95    98   101     5
   99    98   100     5
   99    98   101     5
  100    98   101     5
   98   101   102     5
   98   101   103     5
   98   101   104     5
  102   101   103     5
  102   101   104     5
  103   101   104     5
  101   104   105     5
  101   104   106     5
  101   104   107     5
  105   104   106     5
  105   104   107     5
  106   104   107     5
  104   107   108     5
  104   107   109     5
  104   107   110     5
  108   107   109     5
  108   107   110     5
  109   107   110     5
  107   110   111     5
  107   110   112     5
  107   110   113     5
  111   110   112     5
  111   110   113     5
  112   110   113     5
  110   113   114     5
  110   113   115     5
  110   113   116     5
  114   113   115     5
  114   113   116     5
  115   113   116     5
  113   116   117     5
  113   116   118     5
  113   116   119     5
  117   116   118     5
  117   116   119     5
  118   116   119     5
  116   119   120     5
  116   119   121     5
  116   119   122     5
  120   119   121     5
  120   119   122     5
  121   119   122     5
  119   122   123     5
  119   122   124     5
  119   122   125     5
  123   122   124     5
  123   122   125     5
  124   122   125     5
  122   125   126     5
  122   125   127     5
  122   125   128     5
  126   125   127     5
  126   125   128     5
  127   125   128     5
  125   128   129     5
  125   128   130     5
  125   128   131     5
  129   128   130     5
  129   128   131     5
  130   128   131     5
  128   131   132     5
  128   131   133     5
  128   131   134     5
  132   131   133     5
  132   131   134     5
  133   131   134     5

[ dihedrals ]
; ai	aj	ak	al	funct	phi0	cp	mult
    2     1     3     4     9
    2     1     3     5     9
    2     1     3     6     9
    2     1     7     8     9
    2     1     7     9     9
    2     1     7    10     9
    3     1     7     8     9
    3     1     7     9     9
    3     1     7    10     9
    2     1    11    12     9
    2     1    11    13     9
    2     1    11    14     9
    3     1    11    12     9
    3     1    11    13     9
    3     1    11    14     9
    7     1    11    12     9
    7     1    11    13     9
    7     1    11    14     9
    4     3     1     7     9
    4     3     1    11     9
    5     3     1     7     9
    5     3     1    11     9
    6     3     1     7     9
    6     3     1    11     9
    8     7     1    11     9
    9     7     1    11     9
   10     7     1    11     9
    1    11    14    15     9
    1    11    14    16     9
    1    11    14    17     9
   12    11    14    15     9
   12    11    14    16     9
   12    11    14    17     9
   13    11    14    15     9
   13    11    14    16     9
   13    11    14    17     9
   11    14    17    18     9
   11    14    17    19     9
   11    14    17    21     9
   15    14    17    18     9
   15    14    17    19     9
   15    14    17    21     9
   16    14    17    18     9
   16    14    17    19     9
   16    14    17    21     9
   14    17    21    20     9
   14    17    21    22     9
   18    17    21    20     9
   18    17    21    22     9
   19    17    21    20     9
   19    17    21    22     9
   21    20    23    24     9
   21    20    23    25     9
   21    20    23    80     9
   17    21    20    23     9
   22    21    20    23     9
   20    23    25    26     9
   20    23    25    27     9
   20    23    25    28     9
   24    23    25    26     9
   24    23    25    27     9
   24    23    25    28     9
   20    23    80    81     9
   20    23    80    82     9
   20    23    80    83     9
   24    23    80    81     9
   24    23    80    82     9
   24    23    80    83     9
   25    23    80    81     9
   25    23    80    82     9
   25    23    80    83     9
   26    25    23    80     9
   27    25    23    80     9
   28    25    23    80     9
   23    25    28    29     9
   23    25    28    30     9
   23    25    28    31     9
   26    25    28    29     9
   26    25    28    30     9
   26    25    28    31     9
   27    25    28    29     9
   27    25    28    30     9
   27    25    28    31     9
   25    28    31    32     9
   25    28    31    33     9
   25    28    31    34     9
   29    28    31    32     9
   29    28    31    33     9
   29    28    31    34     9
   30    28    31    32     9
   30    28    31    33     9
   30    28    31    34     9
   28    31    34    35     9
   28    31    34    36     9
   28    31    34    37     9
   32    31    34    35     9
   32    31    34    36     9
   32    31    34    37     9
   33    31    34    35     9
   33    31    34    36     9
   33    31    34    37     9
   31    34    37    38     9
   31    34    37    39     9
   31    34    37    40     9
   35    34    37    38     9
   35    34    37    39     9
   35    34    37    40     9
   36    34    37    38     9
   36    34    37    39     9
   36    34    37    40     9
   34    37    40    41     9
   34    37    40    42     9
   34    37    40    43     9
   38    37    40    41     9
   38    37    40    42     9
   38    37    40    43     9
   39    37    40    41     9
   39    37    40    42     9
   39    37    40    43     9
   37    40    43    44     9
   37    40    43    45     9
   37    40    43    46     9
   41    40    43    44     9
   41    40    43    45     9
   41    40    43    46     9
   42    40    43    44     9
   42    40    43    45     9
   42    40    43    46     9
   40    43    46    47     9
   40    43    46    48     9
   40    43    46    49     9
   44    43    46    47     9
   44    43    46    48     9
   44    43    46    49     9
   45    43    46    47     9
   45    43    46    48     9
   45    43    46    49     9
   43    46    49    50     9
   43    46    49    51     9
   43    46    49    52     9
   47    46    49    50     9
   47    46    49    51     9
   47    46    49    52     9
   48    46    49    50     9
   48    46    49    51     9
   48    46    49    52     9
   46    49    52    53     9
   46    49    52    54     9
   46    49    52    55     9
   50    49    52    53     9
   50    49    52    54     9
   50    49    52    55     9
   51    49    52    53     9
   51    49    52    54     9
   51    49    52    55     9
   49    52    55    56     9
   49    52    55    57     9
   49    52    55    58     9
   53    52    55    56     9
   53    52    55    57     9
   53    52    55    58     9
   54    52    55    56     9
   54    52    55    57     9
   54    52    55    58     9
   52    55    58    59     9
   52    55    58    60     9
   52    55    58    61     9
   56    55    58    59     9
   56    55    58    60     9
   56    55    58    61     9
   57    55    58    59     9
   57    55    58    60     9
   57    55    58    61     9
   55    58    61    62     9
   55    58    61    63     9
   55    58    61    64     9
   59    58    61    62     9
   59    58    61    63     9
   59    58    61    64     9
   60    58    61    62     9
   60    58    61    63     9
   60    58    61    64     9
   58    61    64    65     9
   58    61    64    66     9
   58    61    64    67     9
   62    61    64    65     9
   62    61    64    66     9
   62    61    64    67     9
   63    61    64    65     9
   63    61    64    66     9
   63    61    64    67     9
   61    64    67    68     9
   61    64    67    69     9
   61    64    67    70     9
   65    64    67    68     9
   65    64    67    69     9
   65    64    67    70     9
   66    64    67    68     9
   66    64    67    69     9
   66    64    67    70     9
   64    67    70    71     9
   64    67    70    72     9
   64    67    70    73     9
   68    67    70    71     9
   68    67    70    72     9
   68    67    70    73     9
   69    67    70    71     9
   69    67    70    72     9
   69    67    70    73     9
   67    70    73    74     9
   67    70    73    75     9
   67    70    73    76     9
   71    70    73    74     9
   71    70    73    75     9
   71    70    73    76     9
   72    70    73    74     9
   72    70    73    75     9
   72    70    73    76     9
   70    73    76    77     9
   70    73    76    78     9
   70    73    76    79     9
   74    73    76    77     9
   74    73    76    78     9
   74    73    76    79     9
   75    73    76    77     9
   75    73    76    78     9
   75    73    76    79     9
   23    80    83    84     9
   23    80    83    85     9
   23    80    83    86     9
   81    80    83    84     9
   81    80    83    85     9
   81    80    83    86     9
   82    80    83    84     9
   82    80    83    85     9
   82    80    83    86     9
   80    83    86    87     9
   80    83    86    88     9
   80    83    86    89     9
   84    83    86    87     9
   84    83    86    88     9
   84    83    86    89     9
   85    83    86    87     9
   85    83    86    88     9
   85    83    86    89     9
   83    86    89    90     9
   83    86    89    91     9
   83    86    89    92     9
   87    86    89    90     9
   87    86    89    91     9
   87    86    89    92     9
   88    86    89    90     9
   88    86    89    91     9
   88    86    89    92     9
   86    89    92    93     9
   86    89    92    94     9
   86    89    92    95     9
   90    89    92    93     9
   90    89    92    94     9
   90    89    92    95     9
   91    89    92    93     9
   91    89    92    94     9
   91    89    92    95     9
   89    92    95    96     9
   89    92    95    97     9
   89    92    95    98     9
   93    92    95    96     9
   93    92    95    97     9
   93    92    95    98     9
   94    92    95    96     9
   94    92    95    97     9
   94    92    95    98     9
   92    95    98    99     9
   92    95    98   100     9
   92    95    98   101     9
   96    95    98    99     9
   96    95    98   100     9
   96    95    98   101     9
   97    95    98    99     9
   97    95    98   100     9
   97    95    98   101     9
   95    98   101   102     9
   95    98   101   103     9
   95    98   101   104     9
   99    98   101   102     9
   99    98   101   103     9
   99    98   101   104     9
  100    98   101   102     9
  100    98   101   103     9
  100    98   101   104     9
   98   101   104   105     9
   98   101   104   106     9
   98   101   104   107     9
  102   101   104   105     9
  102   101   104   106     9
  102   101   104   107     9
  103   101   104   105     9
  103   101   104   106     9
  103   101   104   107     9
  101   104   107   108     9
  101   104   107   109     9
  101   104   107   110     9
  105   104   107   108     9
  105   104   107   109     9
  105   104   107   110     9
  106   104   107   108     9
  106   104   107   109     9
  106   104   107   110     9
  104   107   110   111     9
  104   107   110   112     9
  104   107   110   113     9
  108   107   110   111     9
  108   107   110   112     9
  108   107   110   113     9
  109   107   110   111     9
  109   107   110   112     9
  109   107   110   113     9
  107   110   113   114     9
  107   110   113   115     9
  107   110   113   116     9
  111   110   113   114     9
  111   110   113   115     9
  111   110   113   116     9
  112   110   113   114     9
  112   110   113   115     9
  112   110   113   116     9
  110   113   116   117     9
  110   113   116   118     9
  110   113   116   119     9
  114   113   116   117     9
  114   113   116   118     9
  114   113   116   119     9
  115   113   116   117     9
  115   113   116   118     9
  115   113   116   119     9
  113   116   119   120     9
  113   116   119   121     9
  113   116   119   122     9
  117   116   119   120     9
  117   116   119   121     9
  117   116   119   122     9
  118   116   119   120     9
  118   116   119   121     9
  118   116   119   122     9
  116   119   122   123     9
  116   119   122   124     9
  116   119   122   125     9
  120   119   122   123     9
  120   119   122   124     9
  120   119   122   125     9
  121   119   122   123     9
  121   119   122   124     9
  121   119   122   125     9
  119   122   125   126     9
  119   122   125   127     9
  119   122   125   128     9
  123   122   125   126     9
  123   122   125   127     9
  123   122   125   128     9
  124   122   125   126     9
  124   122   125   127     9
  124   122   125   128     9
  122   125   128   129     9
  122   125   128   130     9
  122   125   128   131     9
  126   125   128   129     9
  126   125   128   130     9
  126   125   128   131     9
  127   125   128   129     9
  127   125   128   130     9
  127   125   128   131     9
  125   128   131   132     9
  125   128   131   133     9
  125   128   131   134     9
  129   128   131   132     9
  129   128   131   133     9
  129   128   131   134     9
  130   128   131   132     9
  130   128   131   133     9
  130   128   131   134     9

[ dihedrals ]
; ai	aj	ak	al	funct	q0	cq
   21    20    17    22     2

#ifdef POSRES
[ position_restraints ]
    1     1     0.0             0.0            POSRES_FC_LIPID
#endif

#ifdef DIHRES
[ dihedral_restraints ]
   20    25    23    80     1   -120.0      2.5       DIHRES_FC
#endif
