;;
;; Generated by CHARMM-GUI FF-Converter
;;
;; Correspondance:
;; jul316@lehigh.edu or wonpil@lehigh.edu
;;
;; GROMACS topology file for DYGL
;;


[ moleculetype ]
; name	nrexcl
DYGL	     3

[ atoms ]
; nr	type	resnr	residu	atom	cgnr	charge	mass
     1       CTL2     35     DYGL     C1      1     0.050000    12.0110   ; qtot  0.050
     2       HAL2     35     DYGL     HA      2     0.090000     1.0080   ; qtot  0.140
     3       HAL2     35     DYGL     HB      3     0.090000     1.0080   ; qtot  0.230
     4        OHL     35     DYGL    O11      4    -0.650000    15.9994   ; qtot -0.420
     5        HOL     35     DYGL    HO1      5     0.420000     1.0080   ; qtot -0.000
     6       CTL1     35     DYGL     C2      6     0.170000    12.0110   ; qtot  0.170
     7       HAL1     35     DYGL     HS      7     0.090000     1.0080   ; qtot  0.260
     8        OSL     35     DYGL    O21      8    -0.490000    15.9994   ; qtot -0.230
     9         CL     35     DYGL    C21      9     0.900000    12.0110   ; qtot  0.670
    10        OBL     35     DYGL    O22     10    -0.630000    15.9994   ; qtot  0.040
    11       CTL2     35     DYGL    C22     11    -0.220000    12.0110   ; qtot -0.180
    12       HAL2     35     DYGL    H2R     12     0.090000     1.0080   ; qtot -0.090
    13       HAL2     35     DYGL    H2S     13     0.090000     1.0080   ; qtot -0.000
    14       CTL2     35     DYGL     C3     14     0.080000    12.0110   ; qtot  0.080
    15       HAL2     35     DYGL     HX     15     0.090000     1.0080   ; qtot  0.170
    16       HAL2     35     DYGL     HY     16     0.090000     1.0080   ; qtot  0.260
    17        OSL     35     DYGL    O31     17    -0.490000    15.9994   ; qtot -0.230
    18         CL     35     DYGL    C31     18     0.900000    12.0110   ; qtot  0.670
    19        OBL     35     DYGL    O32     19    -0.630000    15.9994   ; qtot  0.040
    20       CTL2     35     DYGL    C32     20    -0.220000    12.0110   ; qtot -0.180
    21       HAL2     35     DYGL    H2X     21     0.090000     1.0080   ; qtot -0.090
    22       HAL2     35     DYGL    H2Y     22     0.090000     1.0080   ; qtot -0.000
    23       CTL2     35     DYGL    C23     23    -0.180000    12.0110   ; qtot -0.180
    24       HAL2     35     DYGL    H3R     24     0.090000     1.0080   ; qtot -0.090
    25       HAL2     35     DYGL    H3S     25     0.090000     1.0080   ; qtot -0.000
    26       CTL2     35     DYGL    C24     26    -0.180000    12.0110   ; qtot -0.180
    27       HAL2     35     DYGL    H4R     27     0.090000     1.0080   ; qtot -0.090
    28       HAL2     35     DYGL    H4S     28     0.090000     1.0080   ; qtot -0.000
    29       CTL2     35     DYGL    C25     29    -0.180000    12.0110   ; qtot -0.180
    30       HAL2     35     DYGL    H5R     30     0.090000     1.0080   ; qtot -0.090
    31       HAL2     35     DYGL    H5S     31     0.090000     1.0080   ; qtot -0.000
    32       CTL2     35     DYGL    C26     32    -0.180000    12.0110   ; qtot -0.180
    33       HAL2     35     DYGL    H6R     33     0.090000     1.0080   ; qtot -0.090
    34       HAL2     35     DYGL    H6S     34     0.090000     1.0080   ; qtot -0.000
    35       CTL2     35     DYGL    C27     35    -0.180000    12.0110   ; qtot -0.180
    36       HAL2     35     DYGL    H7R     36     0.090000     1.0080   ; qtot -0.090
    37       HAL2     35     DYGL    H7S     37     0.090000     1.0080   ; qtot -0.000
    38       CTL2     35     DYGL    C28     38    -0.180000    12.0110   ; qtot -0.180
    39       HAL2     35     DYGL    H8R     39     0.090000     1.0080   ; qtot -0.090
    40       HAL2     35     DYGL    H8S     40     0.090000     1.0080   ; qtot -0.000
    41       CEL1     35     DYGL    C29     41    -0.150000    12.0110   ; qtot -0.150
    42       HEL1     35     DYGL    H9R     42     0.150000     1.0080   ; qtot -0.000
    43       CEL1     35     DYGL   C210     43    -0.150000    12.0110   ; qtot -0.150
    44       HEL1     35     DYGL   H10R     44     0.150000     1.0080   ; qtot -0.000
    45       CTL2     35     DYGL   C211     45    -0.180000    12.0110   ; qtot -0.180
    46       HAL2     35     DYGL   H11R     46     0.090000     1.0080   ; qtot -0.090
    47       HAL2     35     DYGL   H11S     47     0.090000     1.0080   ; qtot -0.000
    48       CTL2     35     DYGL   C212     48    -0.180000    12.0110   ; qtot -0.180
    49       HAL2     35     DYGL   H12R     49     0.090000     1.0080   ; qtot -0.090
    50       HAL2     35     DYGL   H12S     50     0.090000     1.0080   ; qtot -0.000
    51       CTL2     35     DYGL   C213     51    -0.180000    12.0110   ; qtot -0.180
    52       HAL2     35     DYGL   H13R     52     0.090000     1.0080   ; qtot -0.090
    53       HAL2     35     DYGL   H13S     53     0.090000     1.0080   ; qtot -0.000
    54       CTL2     35     DYGL   C214     54    -0.180000    12.0110   ; qtot -0.180
    55       HAL2     35     DYGL   H14R     55     0.090000     1.0080   ; qtot -0.090
    56       HAL2     35     DYGL   H14S     56     0.090000     1.0080   ; qtot -0.000
    57       CTL2     35     DYGL   C215     57    -0.180000    12.0110   ; qtot -0.180
    58       HAL2     35     DYGL   H15R     58     0.090000     1.0080   ; qtot -0.090
    59       HAL2     35     DYGL   H15S     59     0.090000     1.0080   ; qtot -0.000
    60       CTL3     35     DYGL   C216     60    -0.270000    12.0110   ; qtot -0.270
    61       HAL3     35     DYGL   H16R     61     0.090000     1.0080   ; qtot -0.180
    62       HAL3     35     DYGL   H16S     62     0.090000     1.0080   ; qtot -0.090
    63       HAL3     35     DYGL   H16T     63     0.090000     1.0080   ; qtot -0.000
    64       CTL2     35     DYGL    C33     64    -0.180000    12.0110   ; qtot -0.180
    65       HAL2     35     DYGL    H3X     65     0.090000     1.0080   ; qtot -0.090
    66       HAL2     35     DYGL    H3Y     66     0.090000     1.0080   ; qtot -0.000
    67       CTL2     35     DYGL    C34     67    -0.180000    12.0110   ; qtot -0.180
    68       HAL2     35     DYGL    H4X     68     0.090000     1.0080   ; qtot -0.090
    69       HAL2     35     DYGL    H4Y     69     0.090000     1.0080   ; qtot -0.000
    70       CTL2     35     DYGL    C35     70    -0.180000    12.0110   ; qtot -0.180
    71       HAL2     35     DYGL    H5X     71     0.090000     1.0080   ; qtot -0.090
    72       HAL2     35     DYGL    H5Y     72     0.090000     1.0080   ; qtot -0.000
    73       CTL2     35     DYGL    C36     73    -0.180000    12.0110   ; qtot -0.180
    74       HAL2     35     DYGL    H6X     74     0.090000     1.0080   ; qtot -0.090
    75       HAL2     35     DYGL    H6Y     75     0.090000     1.0080   ; qtot -0.000
    76       CTL2     35     DYGL    C37     76    -0.180000    12.0110   ; qtot -0.180
    77       HAL2     35     DYGL    H7X     77     0.090000     1.0080   ; qtot -0.090
    78       HAL2     35     DYGL    H7Y     78     0.090000     1.0080   ; qtot -0.000
    79       CTL2     35     DYGL    C38     79    -0.180000    12.0110   ; qtot -0.180
    80       HAL2     35     DYGL    H8X     80     0.090000     1.0080   ; qtot -0.090
    81       HAL2     35     DYGL    H8Y     81     0.090000     1.0080   ; qtot -0.000
    82       CEL1     35     DYGL    C39     82    -0.150000    12.0110   ; qtot -0.150
    83       HEL1     35     DYGL    H9X     83     0.150000     1.0080   ; qtot -0.000
    84       CEL1     35     DYGL   C310     84    -0.150000    12.0110   ; qtot -0.150
    85       HEL1     35     DYGL   H10X     85     0.150000     1.0080   ; qtot -0.000
    86       CTL2     35     DYGL   C311     86    -0.180000    12.0110   ; qtot -0.180
    87       HAL2     35     DYGL   H11X     87     0.090000     1.0080   ; qtot -0.090
    88       HAL2     35     DYGL   H11Y     88     0.090000     1.0080   ; qtot -0.000
    89       CTL2     35     DYGL   C312     89    -0.180000    12.0110   ; qtot -0.180
    90       HAL2     35     DYGL   H12X     90     0.090000     1.0080   ; qtot -0.090
    91       HAL2     35     DYGL   H12Y     91     0.090000     1.0080   ; qtot -0.000
    92       CTL2     35     DYGL   C313     92    -0.180000    12.0110   ; qtot -0.180
    93       HAL2     35     DYGL   H13X     93     0.090000     1.0080   ; qtot -0.090
    94       HAL2     35     DYGL   H13Y     94     0.090000     1.0080   ; qtot -0.000
    95       CTL2     35     DYGL   C314     95    -0.180000    12.0110   ; qtot -0.180
    96       HAL2     35     DYGL   H14X     96     0.090000     1.0080   ; qtot -0.090
    97       HAL2     35     DYGL   H14Y     97     0.090000     1.0080   ; qtot -0.000
    98       CTL2     35     DYGL   C315     98    -0.180000    12.0110   ; qtot -0.180
    99       HAL2     35     DYGL   H15X     99     0.090000     1.0080   ; qtot -0.090
   100       HAL2     35     DYGL   H15Y    100     0.090000     1.0080   ; qtot -0.000
   101       CTL3     35     DYGL   C316    101    -0.270000    12.0110   ; qtot -0.270
   102       HAL3     35     DYGL   H16X    102     0.090000     1.0080   ; qtot -0.180
   103       HAL3     35     DYGL   H16Y    103     0.090000     1.0080   ; qtot -0.090
   104       HAL3     35     DYGL   H16Z    104     0.090000     1.0080   ; qtot -0.000

[ bonds ]
; ai	aj	funct	b0	Kb
    1     2     1
    1     3     1
    1     4     1
    1     6     1
    4     5     1
    6     7     1
    6     8     1
    6    14     1
    8     9     1
    9    10     1
    9    11     1
   11    12     1
   11    13     1
   11    23     1
   14    15     1
   14    16     1
   14    17     1
   17    18     1
   18    19     1
   18    20     1
   20    21     1
   20    22     1
   20    64     1
   23    24     1
   23    25     1
   23    26     1
   26    27     1
   26    28     1
   26    29     1
   29    30     1
   29    31     1
   29    32     1
   32    33     1
   32    34     1
   32    35     1
   35    36     1
   35    37     1
   35    38     1
   38    39     1
   38    40     1
   38    41     1
   41    42     1
   41    43     1
   43    44     1
   43    45     1
   45    46     1
   45    47     1
   45    48     1
   48    49     1
   48    50     1
   48    51     1
   51    52     1
   51    53     1
   51    54     1
   54    55     1
   54    56     1
   54    57     1
   57    58     1
   57    59     1
   57    60     1
   60    61     1
   60    62     1
   60    63     1
   64    65     1
   64    66     1
   64    67     1
   67    68     1
   67    69     1
   67    70     1
   70    71     1
   70    72     1
   70    73     1
   73    74     1
   73    75     1
   73    76     1
   76    77     1
   76    78     1
   76    79     1
   79    80     1
   79    81     1
   79    82     1
   82    83     1
   82    84     1
   84    85     1
   84    86     1
   86    87     1
   86    88     1
   86    89     1
   89    90     1
   89    91     1
   89    92     1
   92    93     1
   92    94     1
   92    95     1
   95    96     1
   95    97     1
   95    98     1
   98    99     1
   98   100     1
   98   101     1
  101   102     1
  101   103     1
  101   104     1

[ pairs ]
; ai	aj	funct	c6	c12 or
; ai	aj	funct	fudgeQQ	q1	q2	c6	c12
    1     9     1
    1    15     1
    1    16     1
    1    17     1
    2     5     1
    2     7     1
    2     8     1
    2    14     1
    3     5     1
    3     7     1
    3     8     1
    3    14     1
    4     7     1
    4     8     1
    4    14     1
    5     6     1
    6    10     1
    6    11     1
    6    18     1
    7     9     1
    7    15     1
    7    16     1
    7    17     1
    8    12     1
    8    13     1
    8    15     1
    8    16     1
    8    17     1
    8    23     1
    9    14     1
    9    24     1
    9    25     1
    9    26     1
   10    12     1
   10    13     1
   10    23     1
   11    27     1
   11    28     1
   11    29     1
   12    24     1
   12    25     1
   12    26     1
   13    24     1
   13    25     1
   13    26     1
   14    19     1
   14    20     1
   15    18     1
   16    18     1
   17    21     1
   17    22     1
   17    64     1
   18    65     1
   18    66     1
   18    67     1
   19    21     1
   19    22     1
   19    64     1
   20    68     1
   20    69     1
   20    70     1
   21    65     1
   21    66     1
   21    67     1
   22    65     1
   22    66     1
   22    67     1
   23    30     1
   23    31     1
   23    32     1
   24    27     1
   24    28     1
   24    29     1
   25    27     1
   25    28     1
   25    29     1
   26    33     1
   26    34     1
   26    35     1
   27    30     1
   27    31     1
   27    32     1
   28    30     1
   28    31     1
   28    32     1
   29    36     1
   29    37     1
   29    38     1
   30    33     1
   30    34     1
   30    35     1
   31    33     1
   31    34     1
   31    35     1
   32    39     1
   32    40     1
   32    41     1
   33    36     1
   33    37     1
   33    38     1
   34    36     1
   34    37     1
   34    38     1
   35    42     1
   35    43     1
   36    39     1
   36    40     1
   36    41     1
   37    39     1
   37    40     1
   37    41     1
   38    44     1
   38    45     1
   39    42     1
   39    43     1
   40    42     1
   40    43     1
   41    46     1
   41    47     1
   41    48     1
   42    44     1
   42    45     1
   43    49     1
   43    50     1
   43    51     1
   44    46     1
   44    47     1
   44    48     1
   45    52     1
   45    53     1
   45    54     1
   46    49     1
   46    50     1
   46    51     1
   47    49     1
   47    50     1
   47    51     1
   48    55     1
   48    56     1
   48    57     1
   49    52     1
   49    53     1
   49    54     1
   50    52     1
   50    53     1
   50    54     1
   51    58     1
   51    59     1
   51    60     1
   52    55     1
   52    56     1
   52    57     1
   53    55     1
   53    56     1
   53    57     1
   54    61     1
   54    62     1
   54    63     1
   55    58     1
   55    59     1
   55    60     1
   56    58     1
   56    59     1
   56    60     1
   58    61     1
   58    62     1
   58    63     1
   59    61     1
   59    62     1
   59    63     1
   64    71     1
   64    72     1
   64    73     1
   65    68     1
   65    69     1
   65    70     1
   66    68     1
   66    69     1
   66    70     1
   67    74     1
   67    75     1
   67    76     1
   68    71     1
   68    72     1
   68    73     1
   69    71     1
   69    72     1
   69    73     1
   70    77     1
   70    78     1
   70    79     1
   71    74     1
   71    75     1
   71    76     1
   72    74     1
   72    75     1
   72    76     1
   73    80     1
   73    81     1
   73    82     1
   74    77     1
   74    78     1
   74    79     1
   75    77     1
   75    78     1
   75    79     1
   76    83     1
   76    84     1
   77    80     1
   77    81     1
   77    82     1
   78    80     1
   78    81     1
   78    82     1
   79    85     1
   79    86     1
   80    83     1
   80    84     1
   81    83     1
   81    84     1
   82    87     1
   82    88     1
   82    89     1
   83    85     1
   83    86     1
   84    90     1
   84    91     1
   84    92     1
   85    87     1
   85    88     1
   85    89     1
   86    93     1
   86    94     1
   86    95     1
   87    90     1
   87    91     1
   87    92     1
   88    90     1
   88    91     1
   88    92     1
   89    96     1
   89    97     1
   89    98     1
   90    93     1
   90    94     1
   90    95     1
   91    93     1
   91    94     1
   91    95     1
   92    99     1
   92   100     1
   92   101     1
   93    96     1
   93    97     1
   93    98     1
   94    96     1
   94    97     1
   94    98     1
   95   102     1
   95   103     1
   95   104     1
   96    99     1
   96   100     1
   96   101     1
   97    99     1
   97   100     1
   97   101     1
   99   102     1
   99   103     1
   99   104     1
  100   102     1
  100   103     1
  100   104     1

[ angles ] 
; ai	aj	ak	funct	th0	cth	S0	Kub
    2     1     3     5
    2     1     4     5
    2     1     6     5
    3     1     4     5
    3     1     6     5
    4     1     6     5
    1     4     5     5
    1     6     7     5
    1     6     8     5
    1     6    14     5
    7     6     8     5
    7     6    14     5
    8     6    14     5
    6     8     9     5
    8     9    10     5
    8     9    11     5
   10     9    11     5
    9    11    12     5
    9    11    13     5
    9    11    23     5
   12    11    13     5
   12    11    23     5
   13    11    23     5
    6    14    15     5
    6    14    16     5
    6    14    17     5
   15    14    16     5
   15    14    17     5
   16    14    17     5
   14    17    18     5
   17    18    19     5
   17    18    20     5
   19    18    20     5
   18    20    21     5
   18    20    22     5
   18    20    64     5
   21    20    22     5
   21    20    64     5
   22    20    64     5
   11    23    24     5
   11    23    25     5
   11    23    26     5
   24    23    25     5
   24    23    26     5
   25    23    26     5
   23    26    27     5
   23    26    28     5
   23    26    29     5
   27    26    28     5
   27    26    29     5
   28    26    29     5
   26    29    30     5
   26    29    31     5
   26    29    32     5
   30    29    31     5
   30    29    32     5
   31    29    32     5
   29    32    33     5
   29    32    34     5
   29    32    35     5
   33    32    34     5
   33    32    35     5
   34    32    35     5
   32    35    36     5
   32    35    37     5
   32    35    38     5
   36    35    37     5
   36    35    38     5
   37    35    38     5
   35    38    39     5
   35    38    40     5
   35    38    41     5
   39    38    40     5
   39    38    41     5
   40    38    41     5
   38    41    42     5
   38    41    43     5
   42    41    43     5
   41    43    44     5
   41    43    45     5
   44    43    45     5
   43    45    46     5
   43    45    47     5
   43    45    48     5
   46    45    47     5
   46    45    48     5
   47    45    48     5
   45    48    49     5
   45    48    50     5
   45    48    51     5
   49    48    50     5
   49    48    51     5
   50    48    51     5
   48    51    52     5
   48    51    53     5
   48    51    54     5
   52    51    53     5
   52    51    54     5
   53    51    54     5
   51    54    55     5
   51    54    56     5
   51    54    57     5
   55    54    56     5
   55    54    57     5
   56    54    57     5
   54    57    58     5
   54    57    59     5
   54    57    60     5
   58    57    59     5
   58    57    60     5
   59    57    60     5
   57    60    61     5
   57    60    62     5
   57    60    63     5
   61    60    62     5
   61    60    63     5
   62    60    63     5
   20    64    65     5
   20    64    66     5
   20    64    67     5
   65    64    66     5
   65    64    67     5
   66    64    67     5
   64    67    68     5
   64    67    69     5
   64    67    70     5
   68    67    69     5
   68    67    70     5
   69    67    70     5
   67    70    71     5
   67    70    72     5
   67    70    73     5
   71    70    72     5
   71    70    73     5
   72    70    73     5
   70    73    74     5
   70    73    75     5
   70    73    76     5
   74    73    75     5
   74    73    76     5
   75    73    76     5
   73    76    77     5
   73    76    78     5
   73    76    79     5
   77    76    78     5
   77    76    79     5
   78    76    79     5
   76    79    80     5
   76    79    81     5
   76    79    82     5
   80    79    81     5
   80    79    82     5
   81    79    82     5
   79    82    83     5
   79    82    84     5
   83    82    84     5
   82    84    85     5
   82    84    86     5
   85    84    86     5
   84    86    87     5
   84    86    88     5
   84    86    89     5
   87    86    88     5
   87    86    89     5
   88    86    89     5
   86    89    90     5
   86    89    91     5
   86    89    92     5
   90    89    91     5
   90    89    92     5
   91    89    92     5
   89    92    93     5
   89    92    94     5
   89    92    95     5
   93    92    94     5
   93    92    95     5
   94    92    95     5
   92    95    96     5
   92    95    97     5
   92    95    98     5
   96    95    97     5
   96    95    98     5
   97    95    98     5
   95    98    99     5
   95    98   100     5
   95    98   101     5
   99    98   100     5
   99    98   101     5
  100    98   101     5
   98   101   102     5
   98   101   103     5
   98   101   104     5
  102   101   103     5
  102   101   104     5
  103   101   104     5

[ dihedrals ]
; ai	aj	ak	al	funct	phi0	cp	mult
    2     1     4     5     9
    3     1     4     5     9
    2     1     6     7     9
    2     1     6     8     9
    2     1     6    14     9
    3     1     6     7     9
    3     1     6     8     9
    3     1     6    14     9
    4     1     6     7     9
    4     1     6     8     9
    4     1     6    14     9
    5     4     1     6     9
    1     6     8     9     9
    7     6     8     9     9
    1     6    14    15     9
    1     6    14    16     9
    1     6    14    17     9
    7     6    14    15     9
    7     6    14    16     9
    7     6    14    17     9
    8     6    14    15     9
    8     6    14    16     9
    8     6    14    17     9
    9     8     6    14     9
    6     8     9    10     9
    6     8     9    11     9
    8     9    11    12     9
    8     9    11    13     9
    8     9    11    23     9
   10     9    11    12     9
   10     9    11    13     9
   10     9    11    23     9
    9    11    23    24     9
    9    11    23    25     9
    9    11    23    26     9
   12    11    23    24     9
   12    11    23    25     9
   12    11    23    26     9
   13    11    23    24     9
   13    11    23    25     9
   13    11    23    26     9
    6    14    17    18     9
   15    14    17    18     9
   16    14    17    18     9
   14    17    18    19     9
   14    17    18    20     9
   17    18    20    21     9
   17    18    20    22     9
   17    18    20    64     9
   19    18    20    21     9
   19    18    20    22     9
   19    18    20    64     9
   18    20    64    65     9
   18    20    64    66     9
   18    20    64    67     9
   21    20    64    65     9
   21    20    64    66     9
   21    20    64    67     9
   22    20    64    65     9
   22    20    64    66     9
   22    20    64    67     9
   11    23    26    27     9
   11    23    26    28     9
   11    23    26    29     9
   24    23    26    27     9
   24    23    26    28     9
   24    23    26    29     9
   25    23    26    27     9
   25    23    26    28     9
   25    23    26    29     9
   23    26    29    30     9
   23    26    29    31     9
   23    26    29    32     9
   27    26    29    30     9
   27    26    29    31     9
   27    26    29    32     9
   28    26    29    30     9
   28    26    29    31     9
   28    26    29    32     9
   26    29    32    33     9
   26    29    32    34     9
   26    29    32    35     9
   30    29    32    33     9
   30    29    32    34     9
   30    29    32    35     9
   31    29    32    33     9
   31    29    32    34     9
   31    29    32    35     9
   29    32    35    36     9
   29    32    35    37     9
   29    32    35    38     9
   33    32    35    36     9
   33    32    35    37     9
   33    32    35    38     9
   34    32    35    36     9
   34    32    35    37     9
   34    32    35    38     9
   32    35    38    39     9
   32    35    38    40     9
   32    35    38    41     9
   36    35    38    39     9
   36    35    38    40     9
   36    35    38    41     9
   37    35    38    39     9
   37    35    38    40     9
   37    35    38    41     9
   35    38    41    42     9
   35    38    41    43     9
   39    38    41    42     9
   39    38    41    43     9
   40    38    41    42     9
   40    38    41    43     9
   38    41    43    44     9
   38    41    43    45     9
   42    41    43    44     9
   42    41    43    45     9
   41    43    45    46     9
   41    43    45    47     9
   41    43    45    48     9
   44    43    45    46     9
   44    43    45    47     9
   44    43    45    48     9
   43    45    48    49     9
   43    45    48    50     9
   43    45    48    51     9
   46    45    48    49     9
   46    45    48    50     9
   46    45    48    51     9
   47    45    48    49     9
   47    45    48    50     9
   47    45    48    51     9
   45    48    51    52     9
   45    48    51    53     9
   45    48    51    54     9
   49    48    51    52     9
   49    48    51    53     9
   49    48    51    54     9
   50    48    51    52     9
   50    48    51    53     9
   50    48    51    54     9
   48    51    54    55     9
   48    51    54    56     9
   48    51    54    57     9
   52    51    54    55     9
   52    51    54    56     9
   52    51    54    57     9
   53    51    54    55     9
   53    51    54    56     9
   53    51    54    57     9
   51    54    57    58     9
   51    54    57    59     9
   51    54    57    60     9
   55    54    57    58     9
   55    54    57    59     9
   55    54    57    60     9
   56    54    57    58     9
   56    54    57    59     9
   56    54    57    60     9
   54    57    60    61     9
   54    57    60    62     9
   54    57    60    63     9
   58    57    60    61     9
   58    57    60    62     9
   58    57    60    63     9
   59    57    60    61     9
   59    57    60    62     9
   59    57    60    63     9
   20    64    67    68     9
   20    64    67    69     9
   20    64    67    70     9
   65    64    67    68     9
   65    64    67    69     9
   65    64    67    70     9
   66    64    67    68     9
   66    64    67    69     9
   66    64    67    70     9
   64    67    70    71     9
   64    67    70    72     9
   64    67    70    73     9
   68    67    70    71     9
   68    67    70    72     9
   68    67    70    73     9
   69    67    70    71     9
   69    67    70    72     9
   69    67    70    73     9
   67    70    73    74     9
   67    70    73    75     9
   67    70    73    76     9
   71    70    73    74     9
   71    70    73    75     9
   71    70    73    76     9
   72    70    73    74     9
   72    70    73    75     9
   72    70    73    76     9
   70    73    76    77     9
   70    73    76    78     9
   70    73    76    79     9
   74    73    76    77     9
   74    73    76    78     9
   74    73    76    79     9
   75    73    76    77     9
   75    73    76    78     9
   75    73    76    79     9
   73    76    79    80     9
   73    76    79    81     9
   73    76    79    82     9
   77    76    79    80     9
   77    76    79    81     9
   77    76    79    82     9
   78    76    79    80     9
   78    76    79    81     9
   78    76    79    82     9
   76    79    82    83     9
   76    79    82    84     9
   80    79    82    83     9
   80    79    82    84     9
   81    79    82    83     9
   81    79    82    84     9
   79    82    84    85     9
   79    82    84    86     9
   83    82    84    85     9
   83    82    84    86     9
   82    84    86    87     9
   82    84    86    88     9
   82    84    86    89     9
   85    84    86    87     9
   85    84    86    88     9
   85    84    86    89     9
   84    86    89    90     9
   84    86    89    91     9
   84    86    89    92     9
   87    86    89    90     9
   87    86    89    91     9
   87    86    89    92     9
   88    86    89    90     9
   88    86    89    91     9
   88    86    89    92     9
   86    89    92    93     9
   86    89    92    94     9
   86    89    92    95     9
   90    89    92    93     9
   90    89    92    94     9
   90    89    92    95     9
   91    89    92    93     9
   91    89    92    94     9
   91    89    92    95     9
   89    92    95    96     9
   89    92    95    97     9
   89    92    95    98     9
   93    92    95    96     9
   93    92    95    97     9
   93    92    95    98     9
   94    92    95    96     9
   94    92    95    97     9
   94    92    95    98     9
   92    95    98    99     9
   92    95    98   100     9
   92    95    98   101     9
   96    95    98    99     9
   96    95    98   100     9
   96    95    98   101     9
   97    95    98    99     9
   97    95    98   100     9
   97    95    98   101     9
   95    98   101   102     9
   95    98   101   103     9
   95    98   101   104     9
   99    98   101   102     9
   99    98   101   103     9
   99    98   101   104     9
  100    98   101   102     9
  100    98   101   103     9
  100    98   101   104     9

[ dihedrals ]
; ai	aj	ak	al	funct	q0	cq
    9     8    11    10     2
   18    17    20    19     2

#ifdef POSRES
[ position_restraints ]
    4     1     0.0             0.0            POSRES_FC_LIPID
#endif

#ifdef DIHRES
[ dihedral_restraints ]
    1    14     6     8     1   -120.0      2.5       DIHRES_FC
   38    41    43    45     1      0.0      0.0       DIHRES_FC
   79    82    84    86     1      0.0      0.0       DIHRES_FC
#endif
