;;
;; Generated by CHARMM-GUI FF-Converter
;;
;; Correspondance:
;; jul316@lehigh.edu or wonpil@lehigh.edu
;;
;; CHARMM FF in GROMACS format
;;


[ defaults ]
; nbfunc	comb-rule	gen-pairs	fudgeLJ	fudgeQQ
1	2	yes	1.000000	1.000000

[ atomtypes ]
; name	at.num	mass	charge	ptype	sigma	epsilon	;	sigma_14	epsilon_14
    HAL1     1     1.0080      0.090     A    2.35197261589e-01    9.204800e-02 
    HAL2     1     1.0080      0.090     A    2.38760856462e-01    1.171520e-01 
    HAL3     1     1.0080      0.090     A    2.38760856462e-01    1.004160e-01 
    HCA1     1     1.0080      0.090     A    2.38760856462e-01    1.882800e-01 
    HCP1     1     1.0080      0.420     A    4.00013524445e-02    1.924640e-01 
    HEL1     1     1.0080      0.150     A    2.22724679535e-01    1.297040e-01 
    HGA1     1     1.0080      0.010     A    2.38760856462e-01    1.882800e-01 
    HGA2     1     1.0080      0.090     A    2.38760856462e-01    1.464400e-01 
    HGA3     1     1.0080      0.090     A    2.38760856462e-01    1.004160e-01 
  HGAAM0     1     1.0080      0.090     A    2.28070071844e-01    1.171520e-01 
    HGP2     1     1.0080      0.320     A    4.00013524445e-02    1.924640e-01 
      HL     1     1.0080      0.250     A    1.24725820540e-01    1.924640e-01 
     HOL     1     1.0080      0.420     A    4.00013524445e-02    1.924640e-01 
      HT     1     1.0080      0.417     A    4.00013524445e-02    1.924640e-01 
  CC3161     6    12.0110      0.140     A    3.56359487256e-01    1.338880e-01 ;   3.38541512893e-01    4.184000e-02 
    CEL1     6    12.0110     -0.150     A    3.72395664183e-01    2.845120e-01 
   CG311     6    12.0110      0.130     A    3.56359487256e-01    1.338880e-01 ;   3.38541512893e-01    4.184000e-02 
   CG321     6    12.0110      0.030     A    3.58141284692e-01    2.343040e-01 ;   3.38541512893e-01    4.184000e-02 
   CG324     6    12.0110      0.235     A    3.87540942391e-01    2.301200e-01 ;   3.38541512893e-01    4.184000e-02 
   CG334     6    12.0110      0.145     A    3.94668132136e-01    3.221680e-01 ;   3.38541512893e-01    4.184000e-02 
  CG3AM0     6    12.0110     -0.060     A    3.51014094947e-01    2.928800e-01 
  CG3C31     6    12.0110     -0.180     A    3.58141284692e-01    2.343040e-01 ;   3.38541512893e-01    4.184000e-02 
  CG3C50     6    12.0110      0.430     A    3.58141284692e-01    1.506240e-01 ;   3.38541512893e-01    4.184000e-02 
  CG3C51     6    12.0110      0.050     A    3.58141284692e-01    1.506240e-01 ;   3.38541512893e-01    4.184000e-02 
  CG3C52     6    12.0110      0.050     A    3.59923082129e-01    2.510400e-01 ;   3.38541512893e-01    4.184000e-02 
  CG3RC1     6    12.0110     -0.090     A    3.56359487256e-01    1.338880e-01 ;   3.38541512893e-01    4.184000e-02 
      CL     6    12.0110      0.900     A    3.56359487256e-01    2.928800e-01 
    CTL1     6    12.0110      0.170     A    4.05358916754e-01    8.368000e-02 ;   3.38541512893e-01    4.184000e-02 
    CTL2     6    12.0110      0.080     A    3.58141284692e-01    2.343040e-01 ;   3.38541512893e-01    4.184000e-02 
    CTL3     6    12.0110     -0.270     A    3.63486677001e-01    3.263520e-01 ;   3.38541512893e-01    4.184000e-02 
    CTL5     6    12.0110     -0.350     A    3.67050271874e-01    3.347200e-01 ;   3.38541512893e-01    4.184000e-02 
   NG301     7    14.0070     -0.630     A    3.56359487256e-01    1.464400e-01 
   NG3P1     7    14.0070     -0.565     A    3.29632525712e-01    8.368000e-01 
     NTL     7    14.0070     -0.600     A    3.29632525712e-01    8.368000e-01 
     O2L     8    15.9994     -0.780     A    3.02905564168e-01    5.020800e-01 
     OBL     8    15.9994     -0.630     A    3.02905564168e-01    5.020800e-01 ;   2.49451641079e-01    5.020800e-01 
   OC2DP     8    15.9994     -0.900     A    3.02905564168e-01    5.020800e-01 
   OC30P     8    15.9994     -0.400     A    3.15378146222e-01    6.363864e-01 
   OC311     8    15.9994     -0.650     A    3.14487247504e-01    8.037464e-01 
   OC312     8    15.9994     -0.680     A    3.15378146222e-01    6.363864e-01 
   OG301     8    15.9994     -0.560     A    2.93996576986e-01    4.184000e-01 
  OG3C51     8    15.9994     -0.400     A    2.93996576986e-01    4.184000e-01 
     OHL     8    15.9994     -0.650     A    3.15378146222e-01    6.363864e-01 
     OSL     8    15.9994     -0.490     A    2.93996576986e-01    4.184000e-01 
    OSLP     8    15.9994     -0.570     A    2.93996576986e-01    4.184000e-01 
      OT     8    15.9994     -0.834     A    3.15057422683e-01    6.363864e-01 
      PC    15    30.9740      1.100     A    3.83086448800e-01    2.447640e+00 
      PL    15    30.9740      1.500     A    3.83086448800e-01    2.447640e+00 

[ nonbond_params ]
; i	j	func	sigma	epsilon
   HGA1    CTL1     1  2.97560171859e-01  1.28867200000e-01 
   HGA1    HAL1     1  2.38760856462e-01  1.37653600000e-01 
   HGA1    HAL2     1  2.38760856462e-01  1.50205600000e-01 
   HGA2    CTL1     1  2.97560171859e-01  1.13386400000e-01 
   HGA2    HAL1     1  2.38760856462e-01  1.20917600000e-01 
   HGA2    HAL2     1  2.38760856462e-01  1.32632800000e-01 

[ bondtypes ]
; i	j	func	b0	Kb
 CC3161  CC3161     1  1.480000e-01  1.861880e+05
 CC3161    HCA1     1  1.111000e-01  2.585712e+05
 CC3161   OC30P     1  1.425000e-01  3.012480e+05
 CC3161   OC311     1  1.410000e-01  3.430880e+05
   CEL1    CEL1     1  1.340000e-01  3.681920e+05
   CEL1    CTL2     1  1.502000e-01  3.054320e+05
  CG311   CG321     1  1.538000e-01  1.861880e+05
  CG311   CG324     1  1.530000e-01  1.861880e+05
  CG311    HGA1     1  1.111000e-01  2.585712e+05
  CG311   OG301     1  1.415000e-01  3.012480e+05
  CG321   CG321     1  1.530000e-01  1.861880e+05
  CG321   CG324     1  1.530000e-01  1.861880e+05
  CG321  CG3C51     1  1.528000e-01  1.861880e+05
  CG321    CTL1     1  1.538000e-01  1.861880e+05
  CG321    CTL2     1  1.530000e-01  1.861880e+05
  CG321    HGA2     1  1.111000e-01  2.585712e+05
  CG321   NG301     1  1.450000e-01  1.673600e+05
  CG321   OG301     1  1.415000e-01  3.012480e+05
  CG324  CG3C51     1  1.528000e-01  1.861880e+05
  CG324    CTL1     1  1.530000e-01  1.861880e+05
  CG324    HGA2     1  1.100000e-01  2.380696e+05
  CG324   NG3P1     1  1.480000e-01  1.673600e+05
  CG334    HGA3     1  1.111000e-01  2.694496e+05
  CG334   NG3P1     1  1.480000e-01  1.673600e+05
 CG3AM0  HGAAM0     1  1.111000e-01  2.602448e+05
 CG3AM0   NG301     1  1.454000e-01  1.966480e+05
 CG3C31  CG3RC1     1  1.524000e-01  1.861880e+05
 CG3C31    HGA2     1  1.083000e-01  2.845120e+05
 CG3C50    CTL2     1  1.520000e-01  1.715440e+05
 CG3C50  OG3C51     1  1.425000e-01  2.928800e+05
 CG3C51  CG3C52     1  1.518000e-01  1.631760e+05
 CG3C51    HGA1     1  1.100000e-01  2.568976e+05
 CG3C51  OG3C51     1  1.425000e-01  2.928800e+05
 CG3C52    HGA2     1  1.100000e-01  2.568976e+05
 CG3C52  OG3C51     1  1.425000e-01  2.928800e+05
 CG3RC1  CG3RC1     1  1.523000e-01  1.861880e+05
 CG3RC1    HGA1     1  1.111000e-01  2.585712e+05
   CTL1    CTL2     1  1.538000e-01  1.861880e+05
   CTL1    CTL3     1  1.538000e-01  1.861880e+05
   CTL1    HAL1     1  1.111000e-01  2.585712e+05
   CTL1     OSL     1  1.430000e-01  2.845120e+05
   CTL2  CG3RC1     1  1.530000e-01  1.861880e+05
   CTL2      CL     1  1.522000e-01  1.673600e+05
   CTL2    CTL2     1  1.530000e-01  1.861880e+05
   CTL2    CTL3     1  1.528000e-01  1.861880e+05
   CTL2    HAL2     1  1.111000e-01  2.585712e+05
   CTL2      HL     1  1.080000e-01  2.510400e+05
   CTL2   OG301     1  1.430000e-01  2.845120e+05
   CTL2     OSL     1  1.430000e-01  2.845120e+05
   CTL2    OSLP     1  1.430000e-01  2.845120e+05
   CTL3    HAL3     1  1.111000e-01  2.694496e+05
   CTL5      HL     1  1.080000e-01  2.510400e+05
   HEL1    CEL1     1  1.100000e-01  3.016664e+05
    HOL     OHL     1  9.600000e-02  4.560560e+05
     HT      HT     1  1.513900e-01  0.000000e+00
     HT      OT     1  9.572000e-02  3.765600e+05
  NG3P1    HGP2     1  1.040000e-01  3.372304e+05
    NTL    CTL2     1  1.510000e-01  1.799120e+05
    NTL    CTL5     1  1.510000e-01  1.799120e+05
    O2L      PL     1  1.480000e-01  4.853440e+05
    OBL      CL     1  1.220000e-01  6.276000e+05
  OC2DP      PC     1  1.525000e-01  4.853440e+05
  OC30P      PC     1  1.675000e-01  2.259360e+05
  OC30P      PL     1  1.675000e-01  2.259360e+05
  OC311    HCP1     1  9.600000e-02  4.560560e+05
  OC312    HCP1     1  9.600000e-02  4.560560e+05
  OC312      PC     1  1.610000e-01  1.983216e+05
    OHL    CTL1     1  1.420000e-01  3.581504e+05
    OHL    CTL2     1  1.420000e-01  3.581504e+05
    OHL      PL     1  1.590000e-01  1.983216e+05
    OSL      CL     1  1.334000e-01  1.255200e+05
   OSLP      PL     1  1.600000e-01  2.259360e+05

[ pairtypes ]
; i	j	func	sigma1-4	epsilon1-4
   HAL1  CC3161     1  2.86869387241e-01  6.20587489400e-02 
   HAL1   CG311     1  2.86869387241e-01  6.20587489400e-02 
   HAL1   CG321     1  2.86869387241e-01  6.20587489400e-02 
   HAL1   CG324     1  2.86869387241e-01  6.20587489400e-02 
   HAL1   CG334     1  2.86869387241e-01  6.20587489400e-02 
   HAL1  CG3C31     1  2.86869387241e-01  6.20587489400e-02 
   HAL1  CG3C50     1  2.86869387241e-01  6.20587489400e-02 
   HAL1  CG3C51     1  2.86869387241e-01  6.20587489400e-02 
   HAL1  CG3C52     1  2.86869387241e-01  6.20587489400e-02 
   HAL1  CG3RC1     1  2.86869387241e-01  6.20587489400e-02 
   HAL1    CTL1     1  2.86869387241e-01  6.20587489400e-02 
   HAL1    CTL2     1  2.86869387241e-01  6.20587489400e-02 
   HAL1    CTL3     1  2.86869387241e-01  6.20587489400e-02 
   HAL1    CTL5     1  2.86869387241e-01  6.20587489400e-02 
   HAL1     OBL     1  2.42324451334e-01  2.14977812437e-01 
   HAL2  CC3161     1  2.88651184677e-01  7.00117110204e-02 
   HAL2   CG311     1  2.88651184677e-01  7.00117110204e-02 
   HAL2   CG321     1  2.88651184677e-01  7.00117110204e-02 
   HAL2   CG324     1  2.88651184677e-01  7.00117110204e-02 
   HAL2   CG334     1  2.88651184677e-01  7.00117110204e-02 
   HAL2  CG3C31     1  2.88651184677e-01  7.00117110204e-02 
   HAL2  CG3C50     1  2.88651184677e-01  7.00117110204e-02 
   HAL2  CG3C51     1  2.88651184677e-01  7.00117110204e-02 
   HAL2  CG3C52     1  2.88651184677e-01  7.00117110204e-02 
   HAL2  CG3RC1     1  2.88651184677e-01  7.00117110204e-02 
   HAL2    CTL1     1  2.88651184677e-01  7.00117110204e-02 
   HAL2    CTL2     1  2.88651184677e-01  7.00117110204e-02 
   HAL2    CTL3     1  2.88651184677e-01  7.00117110204e-02 
   HAL2    CTL5     1  2.88651184677e-01  7.00117110204e-02 
   HAL2     OBL     1  2.44106248770e-01  2.42527681224e-01 
   HAL3  CC3161     1  2.88651184677e-01  6.48182492821e-02 
   HAL3   CG311     1  2.88651184677e-01  6.48182492821e-02 
   HAL3   CG321     1  2.88651184677e-01  6.48182492821e-02 
   HAL3   CG324     1  2.88651184677e-01  6.48182492821e-02 
   HAL3   CG334     1  2.88651184677e-01  6.48182492821e-02 
   HAL3  CG3C31     1  2.88651184677e-01  6.48182492821e-02 
   HAL3  CG3C50     1  2.88651184677e-01  6.48182492821e-02 
   HAL3  CG3C51     1  2.88651184677e-01  6.48182492821e-02 
   HAL3  CG3C52     1  2.88651184677e-01  6.48182492821e-02 
   HAL3  CG3RC1     1  2.88651184677e-01  6.48182492821e-02 
   HAL3    CTL1     1  2.88651184677e-01  6.48182492821e-02 
   HAL3    CTL2     1  2.88651184677e-01  6.48182492821e-02 
   HAL3    CTL3     1  2.88651184677e-01  6.48182492821e-02 
   HAL3    CTL5     1  2.88651184677e-01  6.48182492821e-02 
   HAL3     OBL     1  2.44106248770e-01  2.24537002029e-01 
   HCA1  CC3161     1  2.88651184677e-01  8.87560431745e-02 
   HCA1   CG311     1  2.88651184677e-01  8.87560431745e-02 
   HCA1   CG321     1  2.88651184677e-01  8.87560431745e-02 
   HCA1   CG324     1  2.88651184677e-01  8.87560431745e-02 
   HCA1   CG334     1  2.88651184677e-01  8.87560431745e-02 
   HCA1  CG3C31     1  2.88651184677e-01  8.87560431745e-02 
   HCA1  CG3C50     1  2.88651184677e-01  8.87560431745e-02 
   HCA1  CG3C51     1  2.88651184677e-01  8.87560431745e-02 
   HCA1  CG3C52     1  2.88651184677e-01  8.87560431745e-02 
   HCA1  CG3RC1     1  2.88651184677e-01  8.87560431745e-02 
   HCA1    CTL1     1  2.88651184677e-01  8.87560431745e-02 
   HCA1    CTL2     1  2.88651184677e-01  8.87560431745e-02 
   HCA1    CTL3     1  2.88651184677e-01  8.87560431745e-02 
   HCA1    CTL5     1  2.88651184677e-01  8.87560431745e-02 
   HCA1     OBL     1  2.44106248770e-01  3.07459952514e-01 
   HCP1  CC3161     1  1.89271432669e-01  8.97368027066e-02 
   HCP1   CG311     1  1.89271432669e-01  8.97368027066e-02 
   HCP1   CG321     1  1.89271432669e-01  8.97368027066e-02 
   HCP1   CG324     1  1.89271432669e-01  8.97368027066e-02 
   HCP1   CG334     1  1.89271432669e-01  8.97368027066e-02 
   HCP1  CG3C31     1  1.89271432669e-01  8.97368027066e-02 
   HCP1  CG3C50     1  1.89271432669e-01  8.97368027066e-02 
   HCP1  CG3C51     1  1.89271432669e-01  8.97368027066e-02 
   HCP1  CG3C52     1  1.89271432669e-01  8.97368027066e-02 
   HCP1  CG3RC1     1  1.89271432669e-01  8.97368027066e-02 
   HCP1    CTL1     1  1.89271432669e-01  8.97368027066e-02 
   HCP1    CTL2     1  1.89271432669e-01  8.97368027066e-02 
   HCP1    CTL3     1  1.89271432669e-01  8.97368027066e-02 
   HCP1    CTL5     1  1.89271432669e-01  8.97368027066e-02 
   HCP1     OBL     1  1.44726496762e-01  3.10857403193e-01 
   HEL1  CC3161     1  2.80633096214e-01  7.36669217492e-02 
   HEL1   CG311     1  2.80633096214e-01  7.36669217492e-02 
   HEL1   CG321     1  2.80633096214e-01  7.36669217492e-02 
   HEL1   CG324     1  2.80633096214e-01  7.36669217492e-02 
   HEL1   CG334     1  2.80633096214e-01  7.36669217492e-02 
   HEL1  CG3C31     1  2.80633096214e-01  7.36669217492e-02 
   HEL1  CG3C50     1  2.80633096214e-01  7.36669217492e-02 
   HEL1  CG3C51     1  2.80633096214e-01  7.36669217492e-02 
   HEL1  CG3C52     1  2.80633096214e-01  7.36669217492e-02 
   HEL1  CG3RC1     1  2.80633096214e-01  7.36669217492e-02 
   HEL1    CTL1     1  2.80633096214e-01  7.36669217492e-02 
   HEL1    CTL2     1  2.80633096214e-01  7.36669217492e-02 
   HEL1    CTL3     1  2.80633096214e-01  7.36669217492e-02 
   HEL1    CTL5     1  2.80633096214e-01  7.36669217492e-02 
   HEL1     OBL     1  2.36088160307e-01  2.55189702614e-01 
   HGA1  CC3161     1  2.88651184677e-01  8.87560431745e-02 
   HGA1   CG311     1  2.88651184677e-01  8.87560431745e-02 
   HGA1   CG321     1  2.88651184677e-01  8.87560431745e-02 
   HGA1   CG324     1  2.88651184677e-01  8.87560431745e-02 
   HGA1   CG334     1  2.88651184677e-01  8.87560431745e-02 
   HGA1  CG3C31     1  2.88651184677e-01  8.87560431745e-02 
   HGA1  CG3C50     1  2.88651184677e-01  8.87560431745e-02 
   HGA1  CG3C51     1  2.88651184677e-01  8.87560431745e-02 
   HGA1  CG3C52     1  2.88651184677e-01  8.87560431745e-02 
   HGA1  CG3RC1     1  2.88651184677e-01  8.87560431745e-02 
   HGA1    CTL2     1  2.88651184677e-01  8.87560431745e-02 
   HGA1    CTL3     1  2.88651184677e-01  8.87560431745e-02 
   HGA1    CTL5     1  2.88651184677e-01  8.87560431745e-02 
   HGA1     OBL     1  2.44106248770e-01  3.07459952514e-01 
   HGA2  CC3161     1  2.88651184677e-01  7.82754725313e-02 
   HGA2   CG311     1  2.88651184677e-01  7.82754725313e-02 
   HGA2   CG321     1  2.88651184677e-01  7.82754725313e-02 
   HGA2   CG324     1  2.88651184677e-01  7.82754725313e-02 
   HGA2   CG334     1  2.88651184677e-01  7.82754725313e-02 
   HGA2  CG3C31     1  2.88651184677e-01  7.82754725313e-02 
   HGA2  CG3C50     1  2.88651184677e-01  7.82754725313e-02 
   HGA2  CG3C51     1  2.88651184677e-01  7.82754725313e-02 
   HGA2  CG3C52     1  2.88651184677e-01  7.82754725313e-02 
   HGA2  CG3RC1     1  2.88651184677e-01  7.82754725313e-02 
   HGA2    CTL2     1  2.88651184677e-01  7.82754725313e-02 
   HGA2    CTL3     1  2.88651184677e-01  7.82754725313e-02 
   HGA2    CTL5     1  2.88651184677e-01  7.82754725313e-02 
   HGA2     OBL     1  2.44106248770e-01  2.71154190821e-01 
   HGA3  CC3161     1  2.88651184677e-01  6.48182492821e-02 
   HGA3   CG311     1  2.88651184677e-01  6.48182492821e-02 
   HGA3   CG321     1  2.88651184677e-01  6.48182492821e-02 
   HGA3   CG324     1  2.88651184677e-01  6.48182492821e-02 
   HGA3   CG334     1  2.88651184677e-01  6.48182492821e-02 
   HGA3  CG3C31     1  2.88651184677e-01  6.48182492821e-02 
   HGA3  CG3C50     1  2.88651184677e-01  6.48182492821e-02 
   HGA3  CG3C51     1  2.88651184677e-01  6.48182492821e-02 
   HGA3  CG3C52     1  2.88651184677e-01  6.48182492821e-02 
   HGA3  CG3RC1     1  2.88651184677e-01  6.48182492821e-02 
   HGA3    CTL1     1  2.88651184677e-01  6.48182492821e-02 
   HGA3    CTL2     1  2.88651184677e-01  6.48182492821e-02 
   HGA3    CTL3     1  2.88651184677e-01  6.48182492821e-02 
   HGA3    CTL5     1  2.88651184677e-01  6.48182492821e-02 
   HGA3     OBL     1  2.44106248770e-01  2.24537002029e-01 
 HGAAM0  CC3161     1  2.83305792369e-01  7.00117110204e-02 
 HGAAM0   CG311     1  2.83305792369e-01  7.00117110204e-02 
 HGAAM0   CG321     1  2.83305792369e-01  7.00117110204e-02 
 HGAAM0   CG324     1  2.83305792369e-01  7.00117110204e-02 
 HGAAM0   CG334     1  2.83305792369e-01  7.00117110204e-02 
 HGAAM0  CG3C31     1  2.83305792369e-01  7.00117110204e-02 
 HGAAM0  CG3C50     1  2.83305792369e-01  7.00117110204e-02 
 HGAAM0  CG3C51     1  2.83305792369e-01  7.00117110204e-02 
 HGAAM0  CG3C52     1  2.83305792369e-01  7.00117110204e-02 
 HGAAM0  CG3RC1     1  2.83305792369e-01  7.00117110204e-02 
 HGAAM0    CTL1     1  2.83305792369e-01  7.00117110204e-02 
 HGAAM0    CTL2     1  2.83305792369e-01  7.00117110204e-02 
 HGAAM0    CTL3     1  2.83305792369e-01  7.00117110204e-02 
 HGAAM0    CTL5     1  2.83305792369e-01  7.00117110204e-02 
 HGAAM0     OBL     1  2.38760856462e-01  2.42527681224e-01 
   HGP2  CC3161     1  1.89271432669e-01  8.97368027066e-02 
   HGP2   CG311     1  1.89271432669e-01  8.97368027066e-02 
   HGP2   CG321     1  1.89271432669e-01  8.97368027066e-02 
   HGP2   CG324     1  1.89271432669e-01  8.97368027066e-02 
   HGP2   CG334     1  1.89271432669e-01  8.97368027066e-02 
   HGP2  CG3C31     1  1.89271432669e-01  8.97368027066e-02 
   HGP2  CG3C50     1  1.89271432669e-01  8.97368027066e-02 
   HGP2  CG3C51     1  1.89271432669e-01  8.97368027066e-02 
   HGP2  CG3C52     1  1.89271432669e-01  8.97368027066e-02 
   HGP2  CG3RC1     1  1.89271432669e-01  8.97368027066e-02 
   HGP2    CTL1     1  1.89271432669e-01  8.97368027066e-02 
   HGP2    CTL2     1  1.89271432669e-01  8.97368027066e-02 
   HGP2    CTL3     1  1.89271432669e-01  8.97368027066e-02 
   HGP2    CTL5     1  1.89271432669e-01  8.97368027066e-02 
   HGP2     OBL     1  1.44726496762e-01  3.10857403193e-01 
     HL  CC3161     1  2.31633666716e-01  8.97368027066e-02 
     HL   CG311     1  2.31633666716e-01  8.97368027066e-02 
     HL   CG321     1  2.31633666716e-01  8.97368027066e-02 
     HL   CG324     1  2.31633666716e-01  8.97368027066e-02 
     HL   CG334     1  2.31633666716e-01  8.97368027066e-02 
     HL  CG3C31     1  2.31633666716e-01  8.97368027066e-02 
     HL  CG3C50     1  2.31633666716e-01  8.97368027066e-02 
     HL  CG3C51     1  2.31633666716e-01  8.97368027066e-02 
     HL  CG3C52     1  2.31633666716e-01  8.97368027066e-02 
     HL  CG3RC1     1  2.31633666716e-01  8.97368027066e-02 
     HL    CTL1     1  2.31633666716e-01  8.97368027066e-02 
     HL    CTL2     1  2.31633666716e-01  8.97368027066e-02 
     HL    CTL3     1  2.31633666716e-01  8.97368027066e-02 
     HL    CTL5     1  2.31633666716e-01  8.97368027066e-02 
     HL     OBL     1  1.87088730809e-01  3.10857403193e-01 
    HOL  CC3161     1  1.89271432669e-01  8.97368027066e-02 
    HOL   CG311     1  1.89271432669e-01  8.97368027066e-02 
    HOL   CG321     1  1.89271432669e-01  8.97368027066e-02 
    HOL   CG324     1  1.89271432669e-01  8.97368027066e-02 
    HOL   CG334     1  1.89271432669e-01  8.97368027066e-02 
    HOL  CG3C31     1  1.89271432669e-01  8.97368027066e-02 
    HOL  CG3C50     1  1.89271432669e-01  8.97368027066e-02 
    HOL  CG3C51     1  1.89271432669e-01  8.97368027066e-02 
    HOL  CG3C52     1  1.89271432669e-01  8.97368027066e-02 
    HOL  CG3RC1     1  1.89271432669e-01  8.97368027066e-02 
    HOL    CTL1     1  1.89271432669e-01  8.97368027066e-02 
    HOL    CTL2     1  1.89271432669e-01  8.97368027066e-02 
    HOL    CTL3     1  1.89271432669e-01  8.97368027066e-02 
    HOL    CTL5     1  1.89271432669e-01  8.97368027066e-02 
    HOL     OBL     1  1.44726496762e-01  3.10857403193e-01 
     HT  CC3161     1  1.89271432669e-01  8.97368027066e-02 
     HT   CG311     1  1.89271432669e-01  8.97368027066e-02 
     HT   CG321     1  1.89271432669e-01  8.97368027066e-02 
     HT   CG324     1  1.89271432669e-01  8.97368027066e-02 
     HT   CG334     1  1.89271432669e-01  8.97368027066e-02 
     HT  CG3C31     1  1.89271432669e-01  8.97368027066e-02 
     HT  CG3C50     1  1.89271432669e-01  8.97368027066e-02 
     HT  CG3C51     1  1.89271432669e-01  8.97368027066e-02 
     HT  CG3C52     1  1.89271432669e-01  8.97368027066e-02 
     HT  CG3RC1     1  1.89271432669e-01  8.97368027066e-02 
     HT    CTL1     1  1.89271432669e-01  8.97368027066e-02 
     HT    CTL2     1  1.89271432669e-01  8.97368027066e-02 
     HT    CTL3     1  1.89271432669e-01  8.97368027066e-02 
     HT    CTL5     1  1.89271432669e-01  8.97368027066e-02 
     HT     OBL     1  1.44726496762e-01  3.10857403193e-01 
 CC3161  CC3161     1  3.38541512893e-01  4.18400000000e-02 
 CC3161    CEL1     1  3.55468588538e-01  1.09105371453e-01 
 CC3161   CG311     1  3.38541512893e-01  4.18400000000e-02 
 CC3161   CG321     1  3.38541512893e-01  4.18400000000e-02 
 CC3161   CG324     1  3.38541512893e-01  4.18400000000e-02 
 CC3161   CG334     1  3.38541512893e-01  4.18400000000e-02 
 CC3161  CG3AM0     1  3.44777803920e-01  1.10698234855e-01 
 CC3161  CG3C31     1  3.38541512893e-01  4.18400000000e-02 
 CC3161  CG3C50     1  3.38541512893e-01  4.18400000000e-02 
 CC3161  CG3C51     1  3.38541512893e-01  4.18400000000e-02 
 CC3161  CG3C52     1  3.38541512893e-01  4.18400000000e-02 
 CC3161  CG3RC1     1  3.38541512893e-01  4.18400000000e-02 
 CC3161      CL     1  3.47450500075e-01  1.10698234855e-01 
 CC3161    CTL1     1  3.38541512893e-01  4.18400000000e-02 
 CC3161    CTL2     1  3.38541512893e-01  4.18400000000e-02 
 CC3161    CTL3     1  3.38541512893e-01  4.18400000000e-02 
 CC3161    CTL5     1  3.38541512893e-01  4.18400000000e-02 
 CC3161   NG301     1  3.47450500075e-01  7.82754725313e-02 
 CC3161   NG3P1     1  3.34087019303e-01  1.87114168357e-01 
 CC3161     NTL     1  3.34087019303e-01  1.87114168357e-01 
 CC3161     O2L     1  3.20723538531e-01  1.44938011577e-01 
 CC3161     OBL     1  2.93996576986e-01  1.44938011577e-01 
 CC3161   OC2DP     1  3.20723538531e-01  1.44938011577e-01 
 CC3161   OC30P     1  3.26959829558e-01  1.63176000000e-01 
 CC3161   OC311     1  3.26514380198e-01  1.83381431383e-01 
 CC3161   OC312     1  3.26959829558e-01  1.63176000000e-01 
 CC3161   OG301     1  3.16269044940e-01  1.32309697301e-01 
 CC3161  OG3C51     1  3.16269044940e-01  1.32309697301e-01 
 CC3161     OHL     1  3.26959829558e-01  1.63176000000e-01 
 CC3161     OSL     1  3.16269044940e-01  1.32309697301e-01 
 CC3161    OSLP     1  3.16269044940e-01  1.32309697301e-01 
 CC3161      OT     1  3.26799467788e-01  1.63176000000e-01 
 CC3161      PC     1  3.60813980847e-01  3.20014464673e-01 
 CC3161      PL     1  3.60813980847e-01  3.20014464673e-01 
   CEL1   CG311     1  3.55468588538e-01  1.09105371453e-01 
   CEL1   CG321     1  3.55468588538e-01  1.09105371453e-01 
   CEL1   CG324     1  3.55468588538e-01  1.09105371453e-01 
   CEL1   CG334     1  3.55468588538e-01  1.09105371453e-01 
   CEL1  CG3C31     1  3.55468588538e-01  1.09105371453e-01 
   CEL1  CG3C50     1  3.55468588538e-01  1.09105371453e-01 
   CEL1  CG3C51     1  3.55468588538e-01  1.09105371453e-01 
   CEL1  CG3C52     1  3.55468588538e-01  1.09105371453e-01 
   CEL1  CG3RC1     1  3.55468588538e-01  1.09105371453e-01 
   CEL1    CTL1     1  3.55468588538e-01  1.09105371453e-01 
   CEL1    CTL2     1  3.55468588538e-01  1.09105371453e-01 
   CEL1    CTL3     1  3.55468588538e-01  1.09105371453e-01 
   CEL1    CTL5     1  3.55468588538e-01  1.09105371453e-01 
   CEL1     OBL     1  3.10923652631e-01  3.77952093472e-01 
  CG311   CG311     1  3.38541512893e-01  4.18400000000e-02 
  CG311   CG321     1  3.38541512893e-01  4.18400000000e-02 
  CG311   CG324     1  3.38541512893e-01  4.18400000000e-02 
  CG311   CG334     1  3.38541512893e-01  4.18400000000e-02 
  CG311  CG3AM0     1  3.44777803920e-01  1.10698234855e-01 
  CG311  CG3C31     1  3.38541512893e-01  4.18400000000e-02 
  CG311  CG3C50     1  3.38541512893e-01  4.18400000000e-02 
  CG311  CG3C51     1  3.38541512893e-01  4.18400000000e-02 
  CG311  CG3C52     1  3.38541512893e-01  4.18400000000e-02 
  CG311  CG3RC1     1  3.38541512893e-01  4.18400000000e-02 
  CG311      CL     1  3.47450500075e-01  1.10698234855e-01 
  CG311    CTL1     1  3.38541512893e-01  4.18400000000e-02 
  CG311    CTL2     1  3.38541512893e-01  4.18400000000e-02 
  CG311    CTL3     1  3.38541512893e-01  4.18400000000e-02 
  CG311    CTL5     1  3.38541512893e-01  4.18400000000e-02 
  CG311   NG301     1  3.47450500075e-01  7.82754725313e-02 
  CG311   NG3P1     1  3.34087019303e-01  1.87114168357e-01 
  CG311     NTL     1  3.34087019303e-01  1.87114168357e-01 
  CG311     O2L     1  3.20723538531e-01  1.44938011577e-01 
  CG311     OBL     1  2.93996576986e-01  1.44938011577e-01 
  CG311   OC2DP     1  3.20723538531e-01  1.44938011577e-01 
  CG311   OC30P     1  3.26959829558e-01  1.63176000000e-01 
  CG311   OC311     1  3.26514380198e-01  1.83381431383e-01 
  CG311   OC312     1  3.26959829558e-01  1.63176000000e-01 
  CG311   OG301     1  3.16269044940e-01  1.32309697301e-01 
  CG311  OG3C51     1  3.16269044940e-01  1.32309697301e-01 
  CG311     OHL     1  3.26959829558e-01  1.63176000000e-01 
  CG311     OSL     1  3.16269044940e-01  1.32309697301e-01 
  CG311    OSLP     1  3.16269044940e-01  1.32309697301e-01 
  CG311      OT     1  3.26799467788e-01  1.63176000000e-01 
  CG311      PC     1  3.60813980847e-01  3.20014464673e-01 
  CG311      PL     1  3.60813980847e-01  3.20014464673e-01 
  CG321   CG321     1  3.38541512893e-01  4.18400000000e-02 
  CG321   CG324     1  3.38541512893e-01  4.18400000000e-02 
  CG321   CG334     1  3.38541512893e-01  4.18400000000e-02 
  CG321  CG3AM0     1  3.44777803920e-01  1.10698234855e-01 
  CG321  CG3C31     1  3.38541512893e-01  4.18400000000e-02 
  CG321  CG3C50     1  3.38541512893e-01  4.18400000000e-02 
  CG321  CG3C51     1  3.38541512893e-01  4.18400000000e-02 
  CG321  CG3C52     1  3.38541512893e-01  4.18400000000e-02 
  CG321  CG3RC1     1  3.38541512893e-01  4.18400000000e-02 
  CG321      CL     1  3.47450500075e-01  1.10698234855e-01 
  CG321    CTL1     1  3.38541512893e-01  4.18400000000e-02 
  CG321    CTL2     1  3.38541512893e-01  4.18400000000e-02 
  CG321    CTL3     1  3.38541512893e-01  4.18400000000e-02 
  CG321    CTL5     1  3.38541512893e-01  4.18400000000e-02 
  CG321   NG301     1  3.47450500075e-01  7.82754725313e-02 
  CG321   NG3P1     1  3.34087019303e-01  1.87114168357e-01 
  CG321     NTL     1  3.34087019303e-01  1.87114168357e-01 
  CG321     O2L     1  3.20723538531e-01  1.44938011577e-01 
  CG321     OBL     1  2.93996576986e-01  1.44938011577e-01 
  CG321   OC2DP     1  3.20723538531e-01  1.44938011577e-01 
  CG321   OC30P     1  3.26959829558e-01  1.63176000000e-01 
  CG321   OC311     1  3.26514380198e-01  1.83381431383e-01 
  CG321   OC312     1  3.26959829558e-01  1.63176000000e-01 
  CG321   OG301     1  3.16269044940e-01  1.32309697301e-01 
  CG321  OG3C51     1  3.16269044940e-01  1.32309697301e-01 
  CG321     OHL     1  3.26959829558e-01  1.63176000000e-01 
  CG321     OSL     1  3.16269044940e-01  1.32309697301e-01 
  CG321    OSLP     1  3.16269044940e-01  1.32309697301e-01 
  CG321      OT     1  3.26799467788e-01  1.63176000000e-01 
  CG321      PC     1  3.60813980847e-01  3.20014464673e-01 
  CG321      PL     1  3.60813980847e-01  3.20014464673e-01 
  CG324   CG324     1  3.38541512893e-01  4.18400000000e-02 
  CG324   CG334     1  3.38541512893e-01  4.18400000000e-02 
  CG324  CG3AM0     1  3.44777803920e-01  1.10698234855e-01 
  CG324  CG3C31     1  3.38541512893e-01  4.18400000000e-02 
  CG324  CG3C50     1  3.38541512893e-01  4.18400000000e-02 
  CG324  CG3C51     1  3.38541512893e-01  4.18400000000e-02 
  CG324  CG3C52     1  3.38541512893e-01  4.18400000000e-02 
  CG324  CG3RC1     1  3.38541512893e-01  4.18400000000e-02 
  CG324      CL     1  3.47450500075e-01  1.10698234855e-01 
  CG324    CTL1     1  3.38541512893e-01  4.18400000000e-02 
  CG324    CTL2     1  3.38541512893e-01  4.18400000000e-02 
  CG324    CTL3     1  3.38541512893e-01  4.18400000000e-02 
  CG324    CTL5     1  3.38541512893e-01  4.18400000000e-02 
  CG324   NG301     1  3.47450500075e-01  7.82754725313e-02 
  CG324   NG3P1     1  3.34087019303e-01  1.87114168357e-01 
  CG324     NTL     1  3.34087019303e-01  1.87114168357e-01 
  CG324     O2L     1  3.20723538531e-01  1.44938011577e-01 
  CG324     OBL     1  2.93996576986e-01  1.44938011577e-01 
  CG324   OC2DP     1  3.20723538531e-01  1.44938011577e-01 
  CG324   OC30P     1  3.26959829558e-01  1.63176000000e-01 
  CG324   OC311     1  3.26514380198e-01  1.83381431383e-01 
  CG324   OC312     1  3.26959829558e-01  1.63176000000e-01 
  CG324   OG301     1  3.16269044940e-01  1.32309697301e-01 
  CG324  OG3C51     1  3.16269044940e-01  1.32309697301e-01 
  CG324     OHL     1  3.26959829558e-01  1.63176000000e-01 
  CG324     OSL     1  3.16269044940e-01  1.32309697301e-01 
  CG324    OSLP     1  3.16269044940e-01  1.32309697301e-01 
  CG324      OT     1  3.26799467788e-01  1.63176000000e-01 
  CG324      PC     1  3.60813980847e-01  3.20014464673e-01 
  CG324      PL     1  3.60813980847e-01  3.20014464673e-01 
  CG334   CG334     1  3.38541512893e-01  4.18400000000e-02 
  CG334  CG3AM0     1  3.44777803920e-01  1.10698234855e-01 
  CG334  CG3C31     1  3.38541512893e-01  4.18400000000e-02 
  CG334  CG3C50     1  3.38541512893e-01  4.18400000000e-02 
  CG334  CG3C51     1  3.38541512893e-01  4.18400000000e-02 
  CG334  CG3C52     1  3.38541512893e-01  4.18400000000e-02 
  CG334  CG3RC1     1  3.38541512893e-01  4.18400000000e-02 
  CG334      CL     1  3.47450500075e-01  1.10698234855e-01 
  CG334    CTL1     1  3.38541512893e-01  4.18400000000e-02 
  CG334    CTL2     1  3.38541512893e-01  4.18400000000e-02 
  CG334    CTL3     1  3.38541512893e-01  4.18400000000e-02 
  CG334    CTL5     1  3.38541512893e-01  4.18400000000e-02 
  CG334   NG301     1  3.47450500075e-01  7.82754725313e-02 
  CG334   NG3P1     1  3.34087019303e-01  1.87114168357e-01 
  CG334     NTL     1  3.34087019303e-01  1.87114168357e-01 
  CG334     O2L     1  3.20723538531e-01  1.44938011577e-01 
  CG334     OBL     1  2.93996576986e-01  1.44938011577e-01 
  CG334   OC2DP     1  3.20723538531e-01  1.44938011577e-01 
  CG334   OC30P     1  3.26959829558e-01  1.63176000000e-01 
  CG334   OC311     1  3.26514380198e-01  1.83381431383e-01 
  CG334   OC312     1  3.26959829558e-01  1.63176000000e-01 
  CG334   OG301     1  3.16269044940e-01  1.32309697301e-01 
  CG334  OG3C51     1  3.16269044940e-01  1.32309697301e-01 
  CG334     OHL     1  3.26959829558e-01  1.63176000000e-01 
  CG334     OSL     1  3.16269044940e-01  1.32309697301e-01 
  CG334    OSLP     1  3.16269044940e-01  1.32309697301e-01 
  CG334      OT     1  3.26799467788e-01  1.63176000000e-01 
  CG334      PC     1  3.60813980847e-01  3.20014464673e-01 
  CG334      PL     1  3.60813980847e-01  3.20014464673e-01 
 CG3AM0  CG3C31     1  3.44777803920e-01  1.10698234855e-01 
 CG3AM0  CG3C50     1  3.44777803920e-01  1.10698234855e-01 
 CG3AM0  CG3C51     1  3.44777803920e-01  1.10698234855e-01 
 CG3AM0  CG3C52     1  3.44777803920e-01  1.10698234855e-01 
 CG3AM0  CG3RC1     1  3.44777803920e-01  1.10698234855e-01 
 CG3AM0    CTL1     1  3.44777803920e-01  1.10698234855e-01 
 CG3AM0    CTL2     1  3.44777803920e-01  1.10698234855e-01 
 CG3AM0    CTL3     1  3.44777803920e-01  1.10698234855e-01 
 CG3AM0    CTL5     1  3.44777803920e-01  1.10698234855e-01 
 CG3AM0     OBL     1  3.00232868013e-01  3.83469934154e-01 
 CG3C31  CG3C31     1  3.38541512893e-01  4.18400000000e-02 
 CG3C31  CG3C50     1  3.38541512893e-01  4.18400000000e-02 
 CG3C31  CG3C51     1  3.38541512893e-01  4.18400000000e-02 
 CG3C31  CG3C52     1  3.38541512893e-01  4.18400000000e-02 
 CG3C31  CG3RC1     1  3.38541512893e-01  4.18400000000e-02 
 CG3C31      CL     1  3.47450500075e-01  1.10698234855e-01 
 CG3C31    CTL1     1  3.38541512893e-01  4.18400000000e-02 
 CG3C31    CTL2     1  3.38541512893e-01  4.18400000000e-02 
 CG3C31    CTL3     1  3.38541512893e-01  4.18400000000e-02 
 CG3C31    CTL5     1  3.38541512893e-01  4.18400000000e-02 
 CG3C31   NG301     1  3.47450500075e-01  7.82754725313e-02 
 CG3C31   NG3P1     1  3.34087019303e-01  1.87114168357e-01 
 CG3C31     NTL     1  3.34087019303e-01  1.87114168357e-01 
 CG3C31     O2L     1  3.20723538531e-01  1.44938011577e-01 
 CG3C31     OBL     1  2.93996576986e-01  1.44938011577e-01 
 CG3C31   OC2DP     1  3.20723538531e-01  1.44938011577e-01 
 CG3C31   OC30P     1  3.26959829558e-01  1.63176000000e-01 
 CG3C31   OC311     1  3.26514380198e-01  1.83381431383e-01 
 CG3C31   OC312     1  3.26959829558e-01  1.63176000000e-01 
 CG3C31   OG301     1  3.16269044940e-01  1.32309697301e-01 
 CG3C31  OG3C51     1  3.16269044940e-01  1.32309697301e-01 
 CG3C31     OHL     1  3.26959829558e-01  1.63176000000e-01 
 CG3C31     OSL     1  3.16269044940e-01  1.32309697301e-01 
 CG3C31    OSLP     1  3.16269044940e-01  1.32309697301e-01 
 CG3C31      OT     1  3.26799467788e-01  1.63176000000e-01 
 CG3C31      PC     1  3.60813980847e-01  3.20014464673e-01 
 CG3C31      PL     1  3.60813980847e-01  3.20014464673e-01 
 CG3C50  CG3C50     1  3.38541512893e-01  4.18400000000e-02 
 CG3C50  CG3C51     1  3.38541512893e-01  4.18400000000e-02 
 CG3C50  CG3C52     1  3.38541512893e-01  4.18400000000e-02 
 CG3C50  CG3RC1     1  3.38541512893e-01  4.18400000000e-02 
 CG3C50      CL     1  3.47450500075e-01  1.10698234855e-01 
 CG3C50    CTL1     1  3.38541512893e-01  4.18400000000e-02 
 CG3C50    CTL2     1  3.38541512893e-01  4.18400000000e-02 
 CG3C50    CTL3     1  3.38541512893e-01  4.18400000000e-02 
 CG3C50    CTL5     1  3.38541512893e-01  4.18400000000e-02 
 CG3C50   NG301     1  3.47450500075e-01  7.82754725313e-02 
 CG3C50   NG3P1     1  3.34087019303e-01  1.87114168357e-01 
 CG3C50     NTL     1  3.34087019303e-01  1.87114168357e-01 
 CG3C50     O2L     1  3.20723538531e-01  1.44938011577e-01 
 CG3C50     OBL     1  2.93996576986e-01  1.44938011577e-01 
 CG3C50   OC2DP     1  3.20723538531e-01  1.44938011577e-01 
 CG3C50   OC30P     1  3.26959829558e-01  1.63176000000e-01 
 CG3C50   OC311     1  3.26514380198e-01  1.83381431383e-01 
 CG3C50   OC312     1  3.26959829558e-01  1.63176000000e-01 
 CG3C50   OG301     1  3.16269044940e-01  1.32309697301e-01 
 CG3C50  OG3C51     1  3.16269044940e-01  1.32309697301e-01 
 CG3C50     OHL     1  3.26959829558e-01  1.63176000000e-01 
 CG3C50     OSL     1  3.16269044940e-01  1.32309697301e-01 
 CG3C50    OSLP     1  3.16269044940e-01  1.32309697301e-01 
 CG3C50      OT     1  3.26799467788e-01  1.63176000000e-01 
 CG3C50      PC     1  3.60813980847e-01  3.20014464673e-01 
 CG3C50      PL     1  3.60813980847e-01  3.20014464673e-01 
 CG3C51  CG3C51     1  3.38541512893e-01  4.18400000000e-02 
 CG3C51  CG3C52     1  3.38541512893e-01  4.18400000000e-02 
 CG3C51  CG3RC1     1  3.38541512893e-01  4.18400000000e-02 
 CG3C51      CL     1  3.47450500075e-01  1.10698234855e-01 
 CG3C51    CTL1     1  3.38541512893e-01  4.18400000000e-02 
 CG3C51    CTL2     1  3.38541512893e-01  4.18400000000e-02 
 CG3C51    CTL3     1  3.38541512893e-01  4.18400000000e-02 
 CG3C51    CTL5     1  3.38541512893e-01  4.18400000000e-02 
 CG3C51   NG301     1  3.47450500075e-01  7.82754725313e-02 
 CG3C51   NG3P1     1  3.34087019303e-01  1.87114168357e-01 
 CG3C51     NTL     1  3.34087019303e-01  1.87114168357e-01 
 CG3C51     O2L     1  3.20723538531e-01  1.44938011577e-01 
 CG3C51     OBL     1  2.93996576986e-01  1.44938011577e-01 
 CG3C51   OC2DP     1  3.20723538531e-01  1.44938011577e-01 
 CG3C51   OC30P     1  3.26959829558e-01  1.63176000000e-01 
 CG3C51   OC311     1  3.26514380198e-01  1.83381431383e-01 
 CG3C51   OC312     1  3.26959829558e-01  1.63176000000e-01 
 CG3C51   OG301     1  3.16269044940e-01  1.32309697301e-01 
 CG3C51  OG3C51     1  3.16269044940e-01  1.32309697301e-01 
 CG3C51     OHL     1  3.26959829558e-01  1.63176000000e-01 
 CG3C51     OSL     1  3.16269044940e-01  1.32309697301e-01 
 CG3C51    OSLP     1  3.16269044940e-01  1.32309697301e-01 
 CG3C51      OT     1  3.26799467788e-01  1.63176000000e-01 
 CG3C51      PC     1  3.60813980847e-01  3.20014464673e-01 
 CG3C51      PL     1  3.60813980847e-01  3.20014464673e-01 
 CG3C52  CG3C52     1  3.38541512893e-01  4.18400000000e-02 
 CG3C52  CG3RC1     1  3.38541512893e-01  4.18400000000e-02 
 CG3C52      CL     1  3.47450500075e-01  1.10698234855e-01 
 CG3C52    CTL1     1  3.38541512893e-01  4.18400000000e-02 
 CG3C52    CTL2     1  3.38541512893e-01  4.18400000000e-02 
 CG3C52    CTL3     1  3.38541512893e-01  4.18400000000e-02 
 CG3C52    CTL5     1  3.38541512893e-01  4.18400000000e-02 
 CG3C52   NG301     1  3.47450500075e-01  7.82754725313e-02 
 CG3C52   NG3P1     1  3.34087019303e-01  1.87114168357e-01 
 CG3C52     NTL     1  3.34087019303e-01  1.87114168357e-01 
 CG3C52     O2L     1  3.20723538531e-01  1.44938011577e-01 
 CG3C52     OBL     1  2.93996576986e-01  1.44938011577e-01 
 CG3C52   OC2DP     1  3.20723538531e-01  1.44938011577e-01 
 CG3C52   OC30P     1  3.26959829558e-01  1.63176000000e-01 
 CG3C52   OC311     1  3.26514380198e-01  1.83381431383e-01 
 CG3C52   OC312     1  3.26959829558e-01  1.63176000000e-01 
 CG3C52   OG301     1  3.16269044940e-01  1.32309697301e-01 
 CG3C52  OG3C51     1  3.16269044940e-01  1.32309697301e-01 
 CG3C52     OHL     1  3.26959829558e-01  1.63176000000e-01 
 CG3C52     OSL     1  3.16269044940e-01  1.32309697301e-01 
 CG3C52    OSLP     1  3.16269044940e-01  1.32309697301e-01 
 CG3C52      OT     1  3.26799467788e-01  1.63176000000e-01 
 CG3C52      PC     1  3.60813980847e-01  3.20014464673e-01 
 CG3C52      PL     1  3.60813980847e-01  3.20014464673e-01 
 CG3RC1  CG3RC1     1  3.38541512893e-01  4.18400000000e-02 
 CG3RC1      CL     1  3.47450500075e-01  1.10698234855e-01 
 CG3RC1    CTL1     1  3.38541512893e-01  4.18400000000e-02 
 CG3RC1    CTL2     1  3.38541512893e-01  4.18400000000e-02 
 CG3RC1    CTL3     1  3.38541512893e-01  4.18400000000e-02 
 CG3RC1    CTL5     1  3.38541512893e-01  4.18400000000e-02 
 CG3RC1   NG301     1  3.47450500075e-01  7.82754725313e-02 
 CG3RC1   NG3P1     1  3.34087019303e-01  1.87114168357e-01 
 CG3RC1     NTL     1  3.34087019303e-01  1.87114168357e-01 
 CG3RC1     O2L     1  3.20723538531e-01  1.44938011577e-01 
 CG3RC1     OBL     1  2.93996576986e-01  1.44938011577e-01 
 CG3RC1   OC2DP     1  3.20723538531e-01  1.44938011577e-01 
 CG3RC1   OC30P     1  3.26959829558e-01  1.63176000000e-01 
 CG3RC1   OC311     1  3.26514380198e-01  1.83381431383e-01 
 CG3RC1   OC312     1  3.26959829558e-01  1.63176000000e-01 
 CG3RC1   OG301     1  3.16269044940e-01  1.32309697301e-01 
 CG3RC1  OG3C51     1  3.16269044940e-01  1.32309697301e-01 
 CG3RC1     OHL     1  3.26959829558e-01  1.63176000000e-01 
 CG3RC1     OSL     1  3.16269044940e-01  1.32309697301e-01 
 CG3RC1    OSLP     1  3.16269044940e-01  1.32309697301e-01 
 CG3RC1      OT     1  3.26799467788e-01  1.63176000000e-01 
 CG3RC1      PC     1  3.60813980847e-01  3.20014464673e-01 
 CG3RC1      PL     1  3.60813980847e-01  3.20014464673e-01 
     CL    CTL1     1  3.47450500075e-01  1.10698234855e-01 
     CL    CTL2     1  3.47450500075e-01  1.10698234855e-01 
     CL    CTL3     1  3.47450500075e-01  1.10698234855e-01 
     CL    CTL5     1  3.47450500075e-01  1.10698234855e-01 
     CL     OBL     1  3.02905564168e-01  3.83469934154e-01 
   CTL1    CTL1     1  3.38541512893e-01  4.18400000000e-02 
   CTL1    CTL2     1  3.38541512893e-01  4.18400000000e-02 
   CTL1    CTL3     1  3.38541512893e-01  4.18400000000e-02 
   CTL1    CTL5     1  3.38541512893e-01  4.18400000000e-02 
   CTL1   NG301     1  3.47450500075e-01  7.82754725313e-02 
   CTL1   NG3P1     1  3.34087019303e-01  1.87114168357e-01 
   CTL1     NTL     1  3.34087019303e-01  1.87114168357e-01 
   CTL1     O2L     1  3.20723538531e-01  1.44938011577e-01 
   CTL1     OBL     1  2.93996576986e-01  1.44938011577e-01 
   CTL1   OC2DP     1  3.20723538531e-01  1.44938011577e-01 
   CTL1   OC30P     1  3.26959829558e-01  1.63176000000e-01 
   CTL1   OC311     1  3.26514380198e-01  1.83381431383e-01 
   CTL1   OC312     1  3.26959829558e-01  1.63176000000e-01 
   CTL1   OG301     1  3.16269044940e-01  1.32309697301e-01 
   CTL1  OG3C51     1  3.16269044940e-01  1.32309697301e-01 
   CTL1     OHL     1  3.26959829558e-01  1.63176000000e-01 
   CTL1     OSL     1  3.16269044940e-01  1.32309697301e-01 
   CTL1    OSLP     1  3.16269044940e-01  1.32309697301e-01 
   CTL1      OT     1  3.26799467788e-01  1.63176000000e-01 
   CTL1      PC     1  3.60813980847e-01  3.20014464673e-01 
   CTL1      PL     1  3.60813980847e-01  3.20014464673e-01 
   CTL2    CTL2     1  3.38541512893e-01  4.18400000000e-02 
   CTL2    CTL3     1  3.38541512893e-01  4.18400000000e-02 
   CTL2    CTL5     1  3.38541512893e-01  4.18400000000e-02 
   CTL2   NG301     1  3.47450500075e-01  7.82754725313e-02 
   CTL2   NG3P1     1  3.34087019303e-01  1.87114168357e-01 
   CTL2     NTL     1  3.34087019303e-01  1.87114168357e-01 
   CTL2     O2L     1  3.20723538531e-01  1.44938011577e-01 
   CTL2     OBL     1  2.93996576986e-01  1.44938011577e-01 
   CTL2   OC2DP     1  3.20723538531e-01  1.44938011577e-01 
   CTL2   OC30P     1  3.26959829558e-01  1.63176000000e-01 
   CTL2   OC311     1  3.26514380198e-01  1.83381431383e-01 
   CTL2   OC312     1  3.26959829558e-01  1.63176000000e-01 
   CTL2   OG301     1  3.16269044940e-01  1.32309697301e-01 
   CTL2  OG3C51     1  3.16269044940e-01  1.32309697301e-01 
   CTL2     OHL     1  3.26959829558e-01  1.63176000000e-01 
   CTL2     OSL     1  3.16269044940e-01  1.32309697301e-01 
   CTL2    OSLP     1  3.16269044940e-01  1.32309697301e-01 
   CTL2      OT     1  3.26799467788e-01  1.63176000000e-01 
   CTL2      PC     1  3.60813980847e-01  3.20014464673e-01 
   CTL2      PL     1  3.60813980847e-01  3.20014464673e-01 
   CTL3    CTL3     1  3.38541512893e-01  4.18400000000e-02 
   CTL3    CTL5     1  3.38541512893e-01  4.18400000000e-02 
   CTL3   NG301     1  3.47450500075e-01  7.82754725313e-02 
   CTL3   NG3P1     1  3.34087019303e-01  1.87114168357e-01 
   CTL3     NTL     1  3.34087019303e-01  1.87114168357e-01 
   CTL3     O2L     1  3.20723538531e-01  1.44938011577e-01 
   CTL3     OBL     1  2.93996576986e-01  1.44938011577e-01 
   CTL3   OC2DP     1  3.20723538531e-01  1.44938011577e-01 
   CTL3   OC30P     1  3.26959829558e-01  1.63176000000e-01 
   CTL3   OC311     1  3.26514380198e-01  1.83381431383e-01 
   CTL3   OC312     1  3.26959829558e-01  1.63176000000e-01 
   CTL3   OG301     1  3.16269044940e-01  1.32309697301e-01 
   CTL3  OG3C51     1  3.16269044940e-01  1.32309697301e-01 
   CTL3     OHL     1  3.26959829558e-01  1.63176000000e-01 
   CTL3     OSL     1  3.16269044940e-01  1.32309697301e-01 
   CTL3    OSLP     1  3.16269044940e-01  1.32309697301e-01 
   CTL3      OT     1  3.26799467788e-01  1.63176000000e-01 
   CTL3      PC     1  3.60813980847e-01  3.20014464673e-01 
   CTL3      PL     1  3.60813980847e-01  3.20014464673e-01 
   CTL5    CTL5     1  3.38541512893e-01  4.18400000000e-02 
   CTL5   NG301     1  3.47450500075e-01  7.82754725313e-02 
   CTL5   NG3P1     1  3.34087019303e-01  1.87114168357e-01 
   CTL5     NTL     1  3.34087019303e-01  1.87114168357e-01 
   CTL5     O2L     1  3.20723538531e-01  1.44938011577e-01 
   CTL5     OBL     1  2.93996576986e-01  1.44938011577e-01 
   CTL5   OC2DP     1  3.20723538531e-01  1.44938011577e-01 
   CTL5   OC30P     1  3.26959829558e-01  1.63176000000e-01 
   CTL5   OC311     1  3.26514380198e-01  1.83381431383e-01 
   CTL5   OC312     1  3.26959829558e-01  1.63176000000e-01 
   CTL5   OG301     1  3.16269044940e-01  1.32309697301e-01 
   CTL5  OG3C51     1  3.16269044940e-01  1.32309697301e-01 
   CTL5     OHL     1  3.26959829558e-01  1.63176000000e-01 
   CTL5     OSL     1  3.16269044940e-01  1.32309697301e-01 
   CTL5    OSLP     1  3.16269044940e-01  1.32309697301e-01 
   CTL5      OT     1  3.26799467788e-01  1.63176000000e-01 
   CTL5      PC     1  3.60813980847e-01  3.20014464673e-01 
   CTL5      PL     1  3.60813980847e-01  3.20014464673e-01 
  NG301     OBL     1  3.02905564168e-01  2.71154190821e-01 
  NG3P1     OBL     1  2.89542083396e-01  6.48182492821e-01 
    NTL     OBL     1  2.89542083396e-01  6.48182492821e-01 
    O2L     OBL     1  2.76178602624e-01  5.02080000000e-01 
    OBL     OBL     1  2.49451641079e-01  5.02080000000e-01 
    OBL   OC2DP     1  2.76178602624e-01  5.02080000000e-01 
    OBL   OC30P     1  2.82414893650e-01  5.65258245152e-01 
    OBL   OC311     1  2.81969444291e-01  6.35251912639e-01 
    OBL   OC312     1  2.82414893650e-01  5.65258245152e-01 
    OBL   OG301     1  2.71724109033e-01  4.58334236120e-01 
    OBL  OG3C51     1  2.71724109033e-01  4.58334236120e-01 
    OBL     OHL     1  2.82414893650e-01  5.65258245152e-01 
    OBL     OSL     1  2.71724109033e-01  4.58334236120e-01 
    OBL    OSLP     1  2.71724109033e-01  4.58334236120e-01 
    OBL      OT     1  2.82254531881e-01  5.65258245152e-01 
    OBL      PC     1  3.16269044940e-01  1.10856262394e+00 
    OBL      PL     1  3.16269044940e-01  1.10856262394e+00 

[ angletypes ]
; i	j	k	func	th0	Kth	s0	Kub
 CC3161  CC3161  CC3161     5  1.1100000e+02  4.4643280e+02  2.5610000e-01  6.6944000e+03
 CC3161  CC3161    HCA1     5  1.1010000e+02  2.8869600e+02  2.1790000e-01  1.8853104e+04
 CC3161  CC3161   OC311     5  1.1010000e+02  6.3345760e+02  0.0000000e+00  0.0000000e+00
 CC3161   OC30P      PC     5  1.2000000e+02  1.6736000e+02  2.3300000e-01  2.9288000e+04
 CC3161   OC30P      PL     5  1.2000000e+02  1.6736000e+02  2.3300000e-01  2.9288000e+04
 CC3161   OC311    HCP1     5  1.0900000e+02  4.1840000e+02  0.0000000e+00  0.0000000e+00
   CEL1    CEL1    CTL2     5  1.2350000e+02  4.0166400e+02  0.0000000e+00  0.0000000e+00
   CEL1    CTL2    CEL1     5  1.1400000e+02  2.5104000e+02  0.0000000e+00  0.0000000e+00
   CEL1    CTL2    CTL2     5  1.1220000e+02  2.6777600e+02  0.0000000e+00  0.0000000e+00
   CEL1    CTL2    CTL3     5  1.1220000e+02  2.6777600e+02  0.0000000e+00  0.0000000e+00
  CG311   CG321    HGA2     5  1.1010000e+02  2.7974224e+02  2.1790000e-01  1.8853104e+04
  CG311   CG321   NG301     5  1.1577000e+02  5.0735184e+02  0.0000000e+00  0.0000000e+00
  CG311   CG321   OG301     5  1.1010000e+02  6.3345760e+02  0.0000000e+00  0.0000000e+00
  CG311   CG324    HGA2     5  1.1180000e+02  2.2175200e+02  2.1790000e-01  1.8853104e+04
  CG311   CG324   NG3P1     5  1.1000000e+02  8.3680000e+02  0.0000000e+00  0.0000000e+00
  CG311   OG301    CTL2     5  1.0970000e+02  7.9496000e+02  0.0000000e+00  0.0000000e+00
  CG321   CG311   CG321     5  1.1350000e+02  4.8827280e+02  2.5610000e-01  9.3386880e+03
  CG321   CG311   CG324     5  1.1050000e+02  4.8827280e+02  2.5610000e-01  9.3386880e+03
  CG321   CG311    HGA1     5  1.1010000e+02  2.8869600e+02  2.1790000e-01  1.8853104e+04
  CG321   CG311   OG301     5  1.0970000e+02  9.6232000e+02  0.0000000e+00  0.0000000e+00
  CG321   CG321  CG3C51     5  1.1200000e+02  4.4350400e+02  2.5610000e-01  6.6944000e+03
  CG321   CG321    CTL2     5  1.1360000e+02  4.8827280e+02  2.5610000e-01  9.3386880e+03
  CG321   CG321    HGA2     5  1.1010000e+02  2.2175200e+02  2.1790000e-01  1.8853104e+04
  CG321   CG321   NG301     5  1.0700000e+02  4.7697600e+02  0.0000000e+00  0.0000000e+00
  CG321   CG324    HGA2     5  1.1180000e+02  2.2175200e+02  2.1790000e-01  1.8853104e+04
  CG321   CG324   NG3P1     5  1.1000000e+02  8.3680000e+02  0.0000000e+00  0.0000000e+00
  CG321  CG3C51  CG3C52     5  1.1500000e+02  4.8534400e+02  2.5610000e-01  6.6944000e+03
  CG321  CG3C51    HGA1     5  1.1010000e+02  2.8953280e+02  2.1790000e-01  1.8853104e+04
  CG321  CG3C51  OG3C51     5  1.1150000e+02  3.7656000e+02  0.0000000e+00  0.0000000e+00
  CG321    CTL1    CTL2     5  1.1350000e+02  4.8827280e+02  2.5610000e-01  9.3386880e+03
  CG321    CTL1    HAL1     5  1.1010000e+02  2.8869600e+02  2.1790000e-01  1.8853104e+04
  CG321    CTL1     OSL     5  1.1010000e+02  6.3345760e+02  0.0000000e+00  0.0000000e+00
  CG321    CTL2      CL     5  1.0800000e+02  4.3513600e+02  0.0000000e+00  0.0000000e+00
  CG321    CTL2    HAL2     5  1.1010000e+02  2.2175200e+02  2.1790000e-01  1.8853104e+04
  CG321   OG301    CTL2     5  1.0970000e+02  7.9496000e+02  0.0000000e+00  0.0000000e+00
  CG324   CG311    HGA1     5  1.1180000e+02  2.2175200e+02  2.1790000e-01  1.8853104e+04
  CG324   CG311   OG301     5  1.0970000e+02  9.6232000e+02  0.0000000e+00  0.0000000e+00
  CG324   CG321  CG3C51     5  1.1200000e+02  4.4350400e+02  2.5610000e-01  6.6944000e+03
  CG324   CG321    HGA2     5  1.1010000e+02  2.2175200e+02  2.1790000e-01  1.8853104e+04
  CG324  CG3C51  CG3C52     5  1.1500000e+02  4.8534400e+02  2.5610000e-01  6.6944000e+03
  CG324  CG3C51    HGA1     5  1.1010000e+02  2.8953280e+02  2.1790000e-01  1.8853104e+04
  CG324  CG3C51  OG3C51     5  1.1150000e+02  3.7656000e+02  0.0000000e+00  0.0000000e+00
  CG324    CTL1    CTL2     5  1.1050000e+02  4.8827280e+02  2.5610000e-01  9.3386880e+03
  CG324    CTL1    HAL1     5  1.1180000e+02  2.2175200e+02  2.1790000e-01  1.8853104e+04
  CG324    CTL1     OSL     5  1.1210000e+02  6.3345760e+02  0.0000000e+00  0.0000000e+00
  CG324   NG3P1   CG334     5  1.0950000e+02  3.7656000e+02  0.0000000e+00  0.0000000e+00
  CG324   NG3P1    HGP2     5  1.1080000e+02  2.5104000e+02  2.0740000e-01  2.2593600e+04
  CG334   NG3P1   CG334     5  1.0950000e+02  3.7656000e+02  0.0000000e+00  0.0000000e+00
  CG334   NG3P1    HGP2     5  1.1080000e+02  2.5104000e+02  2.0740000e-01  2.2593600e+04
 CG3AM0   NG301   CG321     5  1.1090000e+02  4.4350400e+02  0.0000000e+00  0.0000000e+00
 CG3AM0   NG301  CG3AM0     5  1.1090000e+02  4.4350400e+02  0.0000000e+00  0.0000000e+00
 CG3C31  CG3RC1  CG3RC1     5  6.2500000e+01  4.4643280e+02  0.0000000e+00  0.0000000e+00
 CG3C31  CG3RC1    HGA1     5  1.1010000e+02  2.8869600e+02  2.1790000e-01  1.8853104e+04
 CG3C50    CTL2    CTL2     5  1.1200000e+02  4.4350400e+02  2.5610000e-01  6.6944000e+03
 CG3C50    CTL2    HAL2     5  1.0900000e+02  2.6777600e+02  2.1790000e-01  1.8853104e+04
 CG3C50  OG3C51  CG3C51     5  1.1100000e+02  7.9496000e+02  0.0000000e+00  0.0000000e+00
 CG3C50  OG3C51  CG3C52     5  1.1100000e+02  7.9496000e+02  0.0000000e+00  0.0000000e+00
 CG3C51   CG321    HGA2     5  1.1010000e+02  2.8953280e+02  2.1790000e-01  1.8853104e+04
 CG3C51   CG321   NG301     5  1.0700000e+02  4.7697600e+02  0.0000000e+00  0.0000000e+00
 CG3C51   CG324    HGA2     5  1.1010000e+02  2.8953280e+02  2.1790000e-01  1.8853104e+04
 CG3C51   CG324   NG3P1     5  1.1000000e+02  8.3680000e+02  0.0000000e+00  0.0000000e+00
 CG3C51  CG3C52    HGA2     5  1.1140000e+02  2.9288000e+02  2.1790000e-01  1.8853104e+04
 CG3C51  CG3C52  OG3C51     5  1.1110000e+02  3.7656000e+02  0.0000000e+00  0.0000000e+00
 CG3C52  CG3C51    HGA1     5  1.1140000e+02  2.9288000e+02  2.1790000e-01  1.8853104e+04
 CG3C52  CG3C51  OG3C51     5  1.1110000e+02  3.7656000e+02  0.0000000e+00  0.0000000e+00
 CG3RC1  CG3C31  CG3RC1     5  5.8500000e+01  4.4643280e+02  0.0000000e+00  0.0000000e+00
 CG3RC1  CG3C31    HGA2     5  1.1010000e+02  2.8869600e+02  2.1790000e-01  1.8853104e+04
 CG3RC1  CG3RC1    HGA1     5  1.1010000e+02  2.8869600e+02  2.1790000e-01  1.8853104e+04
     CL     OSL    CTL1     5  1.0960000e+02  3.3472000e+02  2.2651000e-01  2.5104000e+04
     CL     OSL    CTL2     5  1.0960000e+02  3.3472000e+02  2.2651000e-01  2.5104000e+04
   CTL1    CTL2    CTL2     5  1.1350000e+02  4.8827280e+02  2.5610000e-01  9.3386880e+03
   CTL1    CTL2    CTL3     5  1.1350000e+02  4.8827280e+02  2.5610000e-01  9.3386880e+03
   CTL2   CG321   CG324     5  1.1050000e+02  4.8827280e+02  2.5610000e-01  9.3386880e+03
   CTL2   CG321    HGA2     5  1.1010000e+02  2.2175200e+02  2.1790000e-01  1.8853104e+04
   CTL2  CG3C50    CTL2     5  1.1000000e+02  4.8534400e+02  2.5610000e-01  9.3386880e+03
   CTL2  CG3C50  OG3C51     5  1.1150000e+02  3.7656000e+02  0.0000000e+00  0.0000000e+00
   CTL2  CG3RC1  CG3C31     5  1.1100000e+02  4.4643280e+02  2.5610000e-01  6.6944000e+03
   CTL2  CG3RC1  CG3RC1     5  1.1100000e+02  4.4643280e+02  2.5610000e-01  6.6944000e+03
   CTL2  CG3RC1    HGA1     5  1.1010000e+02  2.8869600e+02  2.1790000e-01  1.8853104e+04
   CTL2    CTL1    CTL2     5  1.1350000e+02  4.8827280e+02  2.5610000e-01  9.3386880e+03
   CTL2    CTL1    CTL3     5  1.1350000e+02  4.8827280e+02  2.5610000e-01  9.3386880e+03
   CTL2    CTL2  CG3RC1     5  1.1100000e+02  4.4643280e+02  2.5610000e-01  6.6944000e+03
   CTL2    CTL2      CL     5  1.0800000e+02  4.3513600e+02  0.0000000e+00  0.0000000e+00
   CTL2    CTL2    CTL2     5  1.1360000e+02  4.8827280e+02  2.5610000e-01  9.3386880e+03
   CTL2    CTL2    CTL3     5  1.1500000e+02  4.8534400e+02  2.5610000e-01  6.6944000e+03
   CTL2    OSLP      PL     5  1.2000000e+02  1.6736000e+02  2.3300000e-01  2.9288000e+04
   CTL5     NTL    CTL2     5  1.0950000e+02  5.0208000e+02  2.4660000e-01  2.1756800e+04
   CTL5     NTL    CTL5     5  1.0950000e+02  5.0208000e+02  2.4660000e-01  2.1756800e+04
   HAL1    CTL1    CTL2     5  1.1010000e+02  2.8869600e+02  2.1790000e-01  1.8853104e+04
   HAL1    CTL1    CTL3     5  1.1010000e+02  2.8869600e+02  2.1790000e-01  1.8853104e+04
   HAL1    CTL1     OSL     5  1.0950000e+02  5.0208000e+02  0.0000000e+00  0.0000000e+00
   HAL2    CTL2    CEL1     5  1.1150000e+02  3.7656000e+02  0.0000000e+00  0.0000000e+00
   HAL2    CTL2  CG3RC1     5  1.1010000e+02  2.8869600e+02  2.1790000e-01  1.8853104e+04
   HAL2    CTL2      CL     5  1.0950000e+02  2.7614400e+02  2.1630000e-01  2.5104000e+04
   HAL2    CTL2    CTL1     5  1.1010000e+02  2.2175200e+02  2.1790000e-01  1.8853104e+04
   HAL2    CTL2    CTL2     5  1.1010000e+02  2.2175200e+02  2.1790000e-01  1.8853104e+04
   HAL2    CTL2    CTL3     5  1.1010000e+02  2.8953280e+02  2.1790000e-01  1.8853104e+04
   HAL2    CTL2    HAL2     5  1.0900000e+02  2.9706400e+02  1.8020000e-01  4.5187200e+03
   HAL2    CTL2   OG301     5  1.0950000e+02  5.0208000e+02  0.0000000e+00  0.0000000e+00
   HAL2    CTL2     OSL     5  1.0950000e+02  5.0208000e+02  0.0000000e+00  0.0000000e+00
   HAL2    CTL2    OSLP     5  1.0950000e+02  5.0208000e+02  0.0000000e+00  0.0000000e+00
   HAL3    CTL3    CTL1     5  1.1010000e+02  2.7974224e+02  2.1790000e-01  1.8853104e+04
   HAL3    CTL3    CTL2     5  1.1010000e+02  2.8953280e+02  2.1790000e-01  1.8853104e+04
   HAL3    CTL3    HAL3     5  1.0840000e+02  2.9706400e+02  1.8020000e-01  4.5187200e+03
   HCA1  CC3161   OC311     5  1.0889000e+02  4.6024000e+02  0.0000000e+00  0.0000000e+00
   HCP1   OC312      PC     5  1.1500000e+02  2.5104000e+02  2.3500000e-01  3.3472000e+04
   HEL1    CEL1    CEL1     5  1.1950000e+02  4.3513600e+02  0.0000000e+00  0.0000000e+00
   HEL1    CEL1    CTL2     5  1.1600000e+02  3.3472000e+02  0.0000000e+00  0.0000000e+00
   HGA2   CG321    CTL1     5  1.1010000e+02  2.2175200e+02  2.1790000e-01  1.8853104e+04
   HGA2   CG321    HGA2     5  1.0900000e+02  2.9706400e+02  1.8020000e-01  4.5187200e+03
   HGA2   CG324    CTL1     5  1.1180000e+02  2.2175200e+02  2.1790000e-01  1.8853104e+04
   HGA2   CG324    HGA2     5  1.0900000e+02  2.9706400e+02  1.8020000e-01  4.5187200e+03
   HGA2  CG3C31    HGA2     5  1.1700000e+02  1.9246400e+02  1.8020000e-01  4.5187200e+03
   HGA2  CG3C52    HGA2     5  1.0680000e+02  3.2216800e+02  1.8020000e-01  4.5187200e+03
   HGA3   CG334    HGA3     5  1.0840000e+02  2.9706400e+02  1.8020000e-01  4.5187200e+03
 HGAAM0  CG3AM0  HGAAM0     5  1.0840000e+02  2.9706400e+02  1.8020000e-01  4.5187200e+03
     HL    CTL2    CTL1     5  1.1010000e+02  2.7974224e+02  2.1790000e-01  1.8853104e+04
     HL    CTL2      HL     5  1.0950000e+02  2.0083200e+02  1.7670000e-01  2.3430400e+04
     HL    CTL5      HL     5  1.0950000e+02  2.0083200e+02  1.7670000e-01  2.3430400e+04
    HOL     OHL    CTL1     5  1.0600000e+02  4.8116000e+02  0.0000000e+00  0.0000000e+00
    HOL     OHL    CTL2     5  1.0600000e+02  4.8116000e+02  0.0000000e+00  0.0000000e+00
    HOL     OHL      PL     5  1.1500000e+02  2.5104000e+02  2.3000000e-01  3.3472000e+04
     HT      OT      HT     5  1.0452000e+02  4.6024000e+02  0.0000000e+00  0.0000000e+00
  NG301   CG321    CTL1     5  1.1577000e+02  5.0735184e+02  0.0000000e+00  0.0000000e+00
  NG301   CG321    HGA2     5  1.0900000e+02  2.7112320e+02  0.0000000e+00  0.0000000e+00
  NG301  CG3AM0  HGAAM0     5  1.0950000e+02  2.9288000e+02  2.1400000e-01  4.1840000e+04
  NG3P1   CG324    CTL1     5  1.1000000e+02  8.3680000e+02  0.0000000e+00  0.0000000e+00
  NG3P1   CG324    HGA2     5  1.0230000e+02  3.7656000e+02  2.1010000e-01  2.9288000e+04
  NG3P1   CG334    HGA3     5  1.0230000e+02  3.7656000e+02  2.1010000e-01  2.9288000e+04
    NTL    CTL2    CTL1     5  1.1500000e+02  5.6651360e+02  0.0000000e+00  0.0000000e+00
    NTL    CTL2      HL     5  1.0950000e+02  3.3472000e+02  2.1300000e-01  2.2593600e+04
    NTL    CTL5      HL     5  1.0950000e+02  3.3472000e+02  2.1300000e-01  2.2593600e+04
    O2L      PL     O2L     5  1.2000000e+02  1.0041600e+03  0.0000000e+00  0.0000000e+00
    O2L      PL     OHL     5  1.0823000e+02  8.2759520e+02  0.0000000e+00  0.0000000e+00
    OBL      CL    CTL2     5  1.2500000e+02  5.8576000e+02  2.4420000e-01  1.6736000e+04
  OC2DP      PC   OC2DP     5  1.2000000e+02  1.0041600e+03  0.0000000e+00  0.0000000e+00
  OC2DP      PC   OC312     5  1.1323000e+02  8.2759520e+02  0.0000000e+00  0.0000000e+00
  OC30P  CC3161  CC3161     5  1.0700000e+02  3.7656000e+02  0.0000000e+00  0.0000000e+00
  OC30P  CC3161    HCA1     5  1.0950000e+02  5.0208000e+02  0.0000000e+00  0.0000000e+00
  OC30P      PC   OC2DP     5  1.1160000e+02  8.2759520e+02  0.0000000e+00  0.0000000e+00
  OC30P      PC   OC312     5  1.0800000e+02  4.0250080e+02  0.0000000e+00  0.0000000e+00
  OC30P      PL     O2L     5  1.1160000e+02  8.2759520e+02  0.0000000e+00  0.0000000e+00
  OC30P      PL    OSLP     5  1.0430000e+02  6.6944000e+02  0.0000000e+00  0.0000000e+00
  OG301   CG311    HGA1     5  1.0950000e+02  5.0208000e+02  0.0000000e+00  0.0000000e+00
  OG301   CG321    HGA2     5  1.0889000e+02  3.8409120e+02  0.0000000e+00  0.0000000e+00
  OG301    CTL2    CTL2     5  1.1010000e+02  6.3345760e+02  0.0000000e+00  0.0000000e+00
 OG3C51  CG3C50  OG3C51     5  1.0810000e+02  7.1128000e+02  0.0000000e+00  0.0000000e+00
 OG3C51  CG3C51    HGA1     5  1.0730000e+02  5.8576000e+02  0.0000000e+00  0.0000000e+00
 OG3C51  CG3C52    HGA2     5  1.0730000e+02  5.8576000e+02  0.0000000e+00  0.0000000e+00
    OHL    CTL1    CTL2     5  1.1010000e+02  6.3345760e+02  0.0000000e+00  0.0000000e+00
    OHL    CTL1    HAL1     5  1.0889000e+02  3.8409120e+02  0.0000000e+00  0.0000000e+00
    OHL    CTL2    CTL1     5  1.1010000e+02  6.3345760e+02  0.0000000e+00  0.0000000e+00
    OHL    CTL2    HAL2     5  1.0889000e+02  3.8409120e+02  0.0000000e+00  0.0000000e+00
    OSL      CL    CTL2     5  1.0900000e+02  4.6024000e+02  2.3260000e-01  1.6736000e+04
    OSL      CL     OBL     5  1.2590000e+02  7.5312000e+02  2.2576000e-01  1.3388800e+05
    OSL    CTL1    CTL2     5  1.1010000e+02  6.3345760e+02  0.0000000e+00  0.0000000e+00
    OSL    CTL2    CTL1     5  1.1010000e+02  6.3345760e+02  0.0000000e+00  0.0000000e+00
   OSLP    CTL2    CTL1     5  1.1010000e+02  6.3345760e+02  0.0000000e+00  0.0000000e+00
   OSLP      PL     O2L     5  1.1160000e+02  8.2759520e+02  0.0000000e+00  0.0000000e+00
   OSLP      PL     OHL     5  1.0800000e+02  4.0250080e+02  0.0000000e+00  0.0000000e+00
   OSLP      PL    OSLP     5  1.0430000e+02  6.6944000e+02  0.0000000e+00  0.0000000e+00

[ dihedraltypes ]
; i	j	k	l	func	phi0	Kphi	mult
 CC3161  CC3161  CC3161  CC3161     9  1.800000e+02  9.665040e+00      3
 CC3161  CC3161  CC3161   OC30P     9  0.000000e+00  7.363840e+00      1
 CC3161  CC3161  CC3161   OC30P     9  0.000000e+00  1.071104e+01      2
 CC3161  CC3161  CC3161   OC30P     9  0.000000e+00  4.184000e-02      3
 CC3161  CC3161  CC3161   OC311     9  0.000000e+00  8.368000e-01      3
 CC3161  CC3161   OC30P      PC     9  1.800000e+02  8.368000e-02      3
 CC3161  CC3161   OC30P      PL     9  1.800000e+02  8.368000e-02      3
 CC3161  CC3161   OC311    HCP1     9  0.000000e+00  1.213360e+00      1
 CC3161  CC3161   OC311    HCP1     9  0.000000e+00  2.594080e+00      2
 CC3161  CC3161   OC311    HCP1     9  0.000000e+00  2.092000e-01      3
 CC3161   OC30P      PC   OC2DP     9  0.000000e+00  1.380720e+00      3
 CC3161   OC30P      PC   OC312     9  0.000000e+00  6.066800e+00      2
 CC3161   OC30P      PL     O2L     9  0.000000e+00  1.380720e+00      3
 CC3161   OC30P      PL    OSLP     9  0.000000e+00  6.066800e+00      2
   CEL1    CEL1    CTL2    CEL1     9  1.800000e+02  3.556400e+00      1
   CEL1    CEL1    CTL2    CEL1     9  1.800000e+02  1.255200e+00      2
   CEL1    CEL1    CTL2    CEL1     9  0.000000e+00  1.087840e+00      3
   CEL1    CEL1    CTL2    CEL1     9  0.000000e+00  4.016640e-01      4
   CEL1    CEL1    CTL2    CTL2     9  1.800000e+02  3.807440e+00      1
   CEL1    CEL1    CTL2    CTL2     9  1.800000e+02  7.531200e-01      2
   CEL1    CEL1    CTL2    CTL2     9  1.800000e+02  7.112800e-01      3
   CEL1    CEL1    CTL2    CTL3     9  1.800000e+02  3.807440e+00      1
   CEL1    CEL1    CTL2    CTL3     9  1.800000e+02  7.531200e-01      2
   CEL1    CEL1    CTL2    CTL3     9  1.800000e+02  7.112800e-01      3
   CEL1    CEL1    CTL2    HAL2     9  1.800000e+02  1.255200e+00      3
   CEL1    CTL2    CEL1    HEL1     9  0.000000e+00  0.000000e+00      2
   CEL1    CTL2    CEL1    HEL1     9  0.000000e+00  0.000000e+00      3
   CEL1    CTL2    CTL2      CL     9  1.800000e+02  5.857600e-01      1
   CEL1    CTL2    CTL2      CL     9  0.000000e+00  7.112800e-01      2
   CEL1    CTL2    CTL2      CL     9  1.800000e+02  2.092000e-01      3
   CEL1    CTL2    CTL2    CTL2     9  1.800000e+02  5.857600e-01      1
   CEL1    CTL2    CTL2    CTL2     9  0.000000e+00  7.112800e-01      2
   CEL1    CTL2    CTL2    CTL2     9  1.800000e+02  2.092000e-01      3
  CG311   CG321   NG301  CG3AM0     9  1.800000e+02  5.941280e+00      1
  CG311   CG321   NG301  CG3AM0     9  0.000000e+00  3.430880e+00      2
  CG311   CG321   NG301  CG3AM0     9  0.000000e+00  4.267680e+00      3
  CG311   CG321   OG301    CTL2     9  0.000000e+00  2.384880e+00      1
  CG311   CG321   OG301    CTL2     9  0.000000e+00  1.213360e+00      2
  CG311   CG321   OG301    CTL2     9  0.000000e+00  1.799120e+00      3
  CG311   CG324   NG3P1   CG334     9  0.000000e+00  4.184000e-01      3
  CG311   CG324   NG3P1    HGP2     9  0.000000e+00  4.184000e-01      3
  CG321   CG311   CG321    HGA2     9  0.000000e+00  8.158800e-01      1
  CG321   CG311   CG321   NG301     9  0.000000e+00  8.368000e-01      3
  CG321   CG311   CG321   OG301     9  1.800000e+02  8.368000e-01      3
  CG321   CG311   CG324    HGA2     9  0.000000e+00  8.158800e-01      3
  CG321   CG311   CG324   NG3P1     9  0.000000e+00  8.158800e-01      3
  CG321   CG311   OG301    CTL2     9  0.000000e+00  1.673600e+00      1
  CG321   CG311   OG301    CTL2     9  0.000000e+00  2.050160e+00      3
  CG321   CG321  CG3C51  CG3C52     9  1.800000e+02  2.092000e+00      4
  CG321   CG321  CG3C51    HGA1     9  0.000000e+00  8.158800e-01      3
  CG321   CG321  CG3C51  OG3C51     9  1.800000e+02  1.422560e+01      1
  CG321   CG321    CTL2    HAL2     9  0.000000e+00  8.158800e-01      3
  CG321   CG324   NG3P1   CG334     9  0.000000e+00  4.184000e-01      3
  CG321   CG324   NG3P1    HGP2     9  0.000000e+00  4.184000e-01      3
  CG321  CG3C51  CG3C52    HGA2     9  0.000000e+00  7.949600e-01      3
  CG321  CG3C51  CG3C52  OG3C51     9  0.000000e+00  2.510400e-01      2
  CG321  CG3C51  CG3C52  OG3C51     9  0.000000e+00  0.000000e+00      3
  CG321  CG3C51  OG3C51  CG3C50     9  0.000000e+00  1.255200e+00      3
  CG324   CG311   CG321    HGA2     9  0.000000e+00  8.158800e-01      3
  CG324   CG311   CG321   OG301     9  0.000000e+00  1.422560e+00      4
  CG324   CG311   CG321   OG301     9  1.800000e+02  8.368000e-01      3
  CG324   CG311   OG301    CTL2     9  0.000000e+00  1.673600e+00      1
  CG324   CG311   OG301    CTL2     9  0.000000e+00  2.050160e+00      3
  CG324   CG321  CG3C51  CG3C52     9  1.800000e+02  2.092000e+00      4
  CG324   CG321  CG3C51    HGA1     9  0.000000e+00  8.158800e-01      3
  CG324   CG321  CG3C51  OG3C51     9  1.800000e+02  1.422560e+01      1
  CG324   CG321    CTL2    HAL2     9  0.000000e+00  8.158800e-01      3
  CG324  CG3C51  CG3C52    HGA2     9  0.000000e+00  7.949600e-01      3
  CG324  CG3C51  CG3C52  OG3C51     9  0.000000e+00  0.000000e+00      3
  CG324  CG3C51  OG3C51  CG3C50     9  0.000000e+00  1.255200e+00      3
  CG334   NG3P1   CG324    CTL1     9  0.000000e+00  4.184000e-01      3
 CG3AM0   NG301   CG321   CG321     9  1.800000e+02  5.941280e+00      1
 CG3AM0   NG301   CG321   CG321     9  0.000000e+00  3.430880e+00      2
 CG3AM0   NG301   CG321   CG321     9  0.000000e+00  4.267680e+00      3
 CG3AM0   NG301   CG321    CTL1     9  0.000000e+00  1.087840e+00      3
 CG3C31  CG3RC1  CG3RC1    HGA1     9  0.000000e+00  6.276000e-01      3
 CG3C51   CG321   CG321    HGA2     9  0.000000e+00  2.092000e+00      3
 CG3C51   CG321   CG321   NG301     9  1.800000e+02  6.694400e-01      1
 CG3C51   CG321   CG321   NG301     9  0.000000e+00  1.631760e+00      2
 CG3C51   CG321   NG301  CG3AM0     9  1.800000e+02  5.941280e+00      1
 CG3C51   CG321   NG301  CG3AM0     9  0.000000e+00  3.430880e+00      2
 CG3C51   CG321   NG301  CG3AM0     9  0.000000e+00  4.267680e+00      3
 CG3C51   CG324   NG3P1   CG334     9  0.000000e+00  4.184000e-01      3
 CG3C51   CG324   NG3P1    HGP2     9  0.000000e+00  4.184000e-01      3
 CG3C51  CG3C52  OG3C51  CG3C50     9  0.000000e+00  2.092000e+00      3
 CG3C52  CG3C51  OG3C51  CG3C50     9  0.000000e+00  2.092000e+00      3
 CG3RC1  CG3C31  CG3RC1    CTL2     9  0.000000e+00  6.276000e-01      3
 CG3RC1  CG3C31  CG3RC1    HGA1     9  0.000000e+00  6.276000e-01      3
 CG3RC1  CG3RC1    CTL2    CTL2     9  1.596000e+02  7.154640e+00      1
 CG3RC1  CG3RC1    CTL2    CTL2     9  1.651000e+02  1.548080e+00      2
 CG3RC1  CG3RC1    CTL2    CTL2     9  4.760000e+01  2.426720e+00      3
 CG3RC1    CTL2    CTL2    CTL2     9  1.800000e+02  6.694400e-01      1
 CG3RC1    CTL2    CTL2    CTL2     9  1.800000e+02  4.184000e-02      2
 CG3RC1    CTL2    CTL2    CTL2     9  1.800000e+02  7.112800e-01      3
     CL    CTL2   CG321   CG321     9  1.800000e+02  8.786400e-01      1
     CL    CTL2   CG321   CG321     9  0.000000e+00  1.631760e+00      2
     CL    CTL2   CG321   CG321     9  1.800000e+02  1.464400e+00      3
     CL    CTL2   CG321   CG321     9  0.000000e+00  4.602400e-01      4
     CL    CTL2   CG321   CG321     9  1.800000e+02  3.765600e-01      6
     CL    CTL2   CG321   CG324     9  0.000000e+00  8.158800e-01      3
     CL    CTL2   CG321    HGA2     9  0.000000e+00  8.158800e-01      3
     CL     OSL    CTL1    CTL2     9  0.000000e+00  0.000000e+00      4
     CL     OSL    CTL1    CTL2     9  1.800000e+02  6.276000e-01      3
     CL     OSL    CTL1    CTL2     9  1.800000e+02  6.079352e+00      2
     CL     OSL    CTL1    CTL2     9  1.800000e+02  3.502008e+00      1
     CL     OSL    CTL2    CTL1     9  1.800000e+02  1.117128e+00      3
     CL     OSL    CTL2    CTL1     9  0.000000e+00  7.238320e-01      2
     CL     OSL    CTL2    CTL1     9  1.800000e+02  3.267704e+00      1
   CTL2    CEL1    CEL1    HEL1     9  1.800000e+02  2.510400e+01      2
   CTL2   CG321   CG321    HGA2     9  0.000000e+00  8.158800e-01      3
   CTL2   CG321   CG321   NG301     9  1.800000e+02  6.694400e-01      1
   CTL2   CG321   CG321   NG301     9  0.000000e+00  1.631760e+00      2
   CTL2   CG321   CG324    HGA2     9  0.000000e+00  8.158800e-01      3
   CTL2   CG321   CG324   NG3P1     9  0.000000e+00  4.184000e+00      3
   CTL2  CG3C50  OG3C51  CG3C51     9  0.000000e+00  1.255200e+00      3
   CTL2  CG3C50  OG3C51  CG3C52     9  0.000000e+00  1.255200e+00      3
   CTL2  CG3RC1  CG3RC1  CG3C31     9  0.000000e+00  6.276000e-01      3
   CTL2  CG3RC1  CG3RC1    CTL2     9  0.000000e+00  6.276000e-01      3
   CTL2  CG3RC1  CG3RC1    HGA1     9  0.000000e+00  6.276000e-01      3
   CTL2    CTL1    CTL2     OSL     9  0.000000e+00  0.000000e+00      3
   CTL2    CTL2  CG3C50    CTL2     9  0.000000e+00  1.673600e+00      3
   CTL2    CTL2  CG3C50  OG3C51     9  1.800000e+02  1.422560e+01      1
   CTL2    CTL2  CG3RC1  CG3C31     9  1.800000e+02  0.000000e+00      2
   CTL2    CTL2  CG3RC1    HGA1     9  0.000000e+00  6.276000e-01      3
   CTL2    CTL2      CL     OSL     9  0.000000e+00  0.000000e+00      6
   CTL2    CTL2      CL     OSL     9  1.800000e+02  1.255200e-01      3
   CTL2    CTL2      CL     OSL     9  1.800000e+02  1.807488e+00      2
   CTL2    CTL2      CL     OSL     9  0.000000e+00  1.389088e+00      1
   CTL2    CTL2    CTL2      CL     9  1.800000e+02  0.000000e+00      5
   CTL2    CTL2    CTL2      CL     9  1.800000e+02  1.326328e+00      3
   CTL2    CTL2    CTL2      CL     9  0.000000e+00  2.330488e+00      2
   CTL2    CTL2    CTL2      CL     9  0.000000e+00  3.150552e+00      1
   CTL2    CTL2    CTL2    CTL2     9  0.000000e+00  4.225840e-01      2
   CTL2    CTL2    CTL2    CTL2     9  1.800000e+02  5.941280e-01      3
   CTL2    CTL2    CTL2    CTL2     9  0.000000e+00  3.096160e-01      4
   CTL2    CTL2    CTL2    CTL2     9  0.000000e+00  4.058480e-01      5
   CTL2    CTL2    CTL2    CTL3     9  0.000000e+00  6.778080e-01      2
   CTL2    CTL2    CTL2    CTL3     9  1.800000e+02  1.966480e-01      3
   CTL2    CTL2    CTL2    CTL3     9  0.000000e+00  4.393200e-01      4
   CTL2    CTL2    CTL2    CTL3     9  0.000000e+00  7.405680e-01      5
   CTL2    CTL2    CTL2   OG301     9  0.000000e+00  0.000000e+00      3
   CTL2    CTL2   OG301   CG311     9  0.000000e+00  2.384880e+00      1
   CTL2    CTL2   OG301   CG311     9  0.000000e+00  1.213360e+00      2
   CTL2    CTL2   OG301   CG311     9  0.000000e+00  1.799120e+00      3
   CTL2    CTL2   OG301   CG321     9  0.000000e+00  2.384880e+00      1
   CTL2    CTL2   OG301   CG321     9  0.000000e+00  1.213360e+00      2
   CTL2    CTL2   OG301   CG321     9  0.000000e+00  1.799120e+00      3
   HAL2    CTL2   CG321    HGA2     9  0.000000e+00  9.204800e-01      3
   HAL2    CTL2  CG3C50    CTL2     9  0.000000e+00  0.000000e+00      3
   HAL2    CTL2  CG3C50  OG3C51     9  0.000000e+00  6.694400e-01      3
   HAL2    CTL2  CG3RC1  CG3C31     9  0.000000e+00  8.158800e-01      3
   HAL2    CTL2  CG3RC1  CG3RC1     9  0.000000e+00  6.276000e-01      3
   HAL2    CTL2  CG3RC1    HGA1     9  0.000000e+00  6.276000e-01      3
   HAL2    CTL2   OG301   CG311     9  0.000000e+00  1.188256e+00      3
   HAL2    CTL2   OG301   CG321     9  0.000000e+00  1.188256e+00      3
   HCA1  CC3161  CC3161  CC3161     9  0.000000e+00  8.368000e-01      3
   HCA1  CC3161  CC3161    HCA1     9  0.000000e+00  8.368000e-01      3
   HCA1  CC3161  CC3161   OC30P     9  0.000000e+00  8.368000e-01      3
   HCA1  CC3161  CC3161   OC311     9  0.000000e+00  5.857600e-01      3
   HCA1  CC3161   OC30P      PC     9  0.000000e+00  1.188256e+00      3
   HCA1  CC3161   OC30P      PL     9  0.000000e+00  1.188256e+00      3
   HCP1   OC311  CC3161    HCA1     9  0.000000e+00  7.531200e-01      3
   HEL1    CEL1    CEL1    HEL1     9  1.800000e+02  4.184000e+00      2
   HEL1    CEL1    CTL2    CTL2     9  0.000000e+00  5.020800e-01      3
   HEL1    CEL1    CTL2    CTL3     9  0.000000e+00  5.020800e-01      3
   HEL1    CEL1    CTL2    HAL2     9  0.000000e+00  0.000000e+00      3
   HGA1   CG311   CG321    HGA2     9  0.000000e+00  8.158800e-01      3
   HGA1   CG311   CG321   NG301     9  0.000000e+00  7.531200e-01      3
   HGA1   CG311   CG321   OG301     9  0.000000e+00  8.158800e-01      3
   HGA1   CG311   CG324    HGA2     9  0.000000e+00  8.158800e-01      3
   HGA1   CG311   CG324   NG3P1     9  0.000000e+00  8.158800e-01      3
   HGA1   CG311   OG301    CTL2     9  0.000000e+00  1.188256e+00      3
   HGA1  CG3C51  CG3C52    HGA2     9  0.000000e+00  7.949600e-01      3
   HGA1  CG3C51  CG3C52  OG3C51     9  0.000000e+00  7.949600e-01      3
   HGA1  CG3C51  OG3C51  CG3C50     9  0.000000e+00  1.255200e+00      3
   HGA1  CG3RC1  CG3RC1    HGA1     9  0.000000e+00  6.276000e-01      3
   HGA2   CG321   CG321    HGA2     9  0.000000e+00  9.204800e-01      3
   HGA2   CG321   CG324    HGA2     9  0.000000e+00  8.158800e-01      3
   HGA2   CG321   CG324   NG3P1     9  0.000000e+00  8.158800e-01      3
   HGA2   CG321  CG3C51  CG3C52     9  0.000000e+00  6.694400e-01      3
   HGA2   CG321  CG3C51    HGA1     9  0.000000e+00  6.694400e-01      3
   HGA2   CG321  CG3C51  OG3C51     9  0.000000e+00  6.694400e-01      3
   HGA2   CG321    CTL1    CTL2     9  0.000000e+00  8.368000e-01      3
   HGA2   CG321    CTL1    HAL1     9  0.000000e+00  8.368000e-01      3
   HGA2   CG321    CTL1     OSL     9  0.000000e+00  8.368000e-01      3
   HGA2   CG321   NG301  CG3AM0     9  0.000000e+00  4.184000e-01      3
   HGA2   CG321   OG301    CTL2     9  0.000000e+00  1.188256e+00      3
   HGA2   CG324   CG321  CG3C51     9  0.000000e+00  2.092000e+00      3
   HGA2   CG324  CG3C51  CG3C52     9  0.000000e+00  6.694400e-01      3
   HGA2   CG324  CG3C51    HGA1     9  0.000000e+00  6.694400e-01      3
   HGA2   CG324  CG3C51  OG3C51     9  0.000000e+00  6.694400e-01      3
   HGA2   CG324    CTL1    CTL2     9  0.000000e+00  8.158800e-01      3
   HGA2   CG324    CTL1    HAL1     9  0.000000e+00  8.158800e-01      3
   HGA2   CG324    CTL1     OSL     9  0.000000e+00  8.158800e-01      3
   HGA2   CG324   NG3P1   CG334     9  0.000000e+00  4.184000e-01      3
   HGA2   CG324   NG3P1    HGP2     9  0.000000e+00  4.184000e-01      3
   HGA2  CG3C31  CG3RC1  CG3RC1     9  0.000000e+00  6.276000e-01      3
   HGA2  CG3C31  CG3RC1    CTL2     9  0.000000e+00  8.158800e-01      3
   HGA2  CG3C31  CG3RC1    HGA1     9  0.000000e+00  6.276000e-01      3
   HGA2  CG3C52  OG3C51  CG3C50     9  0.000000e+00  1.255200e+00      3
   HGA3   CG334   NG3P1   CG324     9  0.000000e+00  4.184000e-01      3
   HGA3   CG334   NG3P1   CG334     9  0.000000e+00  4.184000e-01      3
   HGA3   CG334   NG3P1    HGP2     9  0.000000e+00  3.765600e+00      3
 HGAAM0  CG3AM0   NG301   CG321     9  1.800000e+02  0.000000e+00      3
 HGAAM0  CG3AM0   NG301  CG3AM0     9  0.000000e+00  1.317960e+00      3
   HGP2   NG3P1   CG324    CTL1     9  0.000000e+00  4.184000e-01      3
  NG301   CG321   CG321    HGA2     9  0.000000e+00  6.694400e-01      3
  NG301   CG321  CG3C51  CG3C52     9  1.800000e+02  8.368000e-01      3
  NG301   CG321  CG3C51    HGA1     9  0.000000e+00  8.158800e-01      3
  NG301   CG321  CG3C51  OG3C51     9  1.800000e+02  1.422560e+01      1
  NG301   CG321    CTL1    CTL2     9  0.000000e+00  8.368000e-01      3
  NG301   CG321    CTL1    HAL1     9  0.000000e+00  7.531200e-01      3
  NG301   CG321    CTL1     OSL     9  0.000000e+00  8.368000e-01      3
  NG3P1   CG324   CG311   OG301     9  0.000000e+00  8.158800e-01      3
  NG3P1   CG324   CG321  CG3C51     9  1.800000e+02  6.694400e-01      1
  NG3P1   CG324   CG321  CG3C51     9  0.000000e+00  1.631760e+00      2
  NG3P1   CG324  CG3C51  CG3C52     9  1.800000e+02  8.368000e-01      3
  NG3P1   CG324  CG3C51    HGA1     9  0.000000e+00  8.158800e-01      3
  NG3P1   CG324  CG3C51  OG3C51     9  1.800000e+02  1.422560e+01      1
  NG3P1   CG324    CTL1    CTL2     9  0.000000e+00  8.158800e-01      3
  NG3P1   CG324    CTL1    HAL1     9  0.000000e+00  8.158800e-01      3
  NG3P1   CG324    CTL1     OSL     9  0.000000e+00  8.158800e-01      3
    O2L      PL    OSLP    CTL2     9  0.000000e+00  4.184000e-01      3
    OBL      CL    CTL2    HAL2     9  1.800000e+02  0.000000e+00      6
    OBL      CL     OSL    CTL1     9  1.800000e+02  4.037560e+00      1
    OBL      CL     OSL    CTL1     9  1.800000e+02  1.610840e+01      2
    OBL      CL     OSL    CTL2     9  1.800000e+02  4.037560e+00      1
    OBL      CL     OSL    CTL2     9  1.800000e+02  1.610840e+01      2
  OC2DP      PC   OC312    HCP1     9  0.000000e+00  1.255200e+00      3
  OC30P  CC3161  CC3161   OC30P     9  0.000000e+00  5.313680e+00      3
  OC30P  CC3161  CC3161   OC311     9  1.800000e+02  1.046000e+01      1
  OC30P  CC3161  CC3161   OC311     9  0.000000e+00  8.368000e+00      2
  OC30P  CC3161  CC3161   OC311     9  0.000000e+00  1.046000e+01      3
  OC30P      PC   OC312    HCP1     9  0.000000e+00  1.255200e+00      3
  OC30P      PL    OSLP    CTL2     9  1.800000e+02  5.020800e+00      1
  OC30P      PL    OSLP    CTL2     9  1.800000e+02  4.184000e-01      2
  OC30P      PL    OSLP    CTL2     9  1.800000e+02  4.184000e-01      3
  OC311  CC3161  CC3161   OC311     9  1.800000e+02  1.108760e+01      1
  OC311  CC3161  CC3161   OC311     9  0.000000e+00  0.000000e+00      2
  OC311  CC3161  CC3161   OC311     9  1.800000e+02  5.439200e-01      3
  OG301   CG311   CG321    HGA2     9  0.000000e+00  8.158800e-01      3
  OG301   CG311   CG321   NG301     9  0.000000e+00  4.267680e+00      6
  OG301   CG311   CG321   NG301     9  0.000000e+00  8.368000e-01      3
  OG301   CG311   CG321   OG301     9  0.000000e+00  8.368000e-01      3
  OG301   CG311   CG324    HGA2     9  0.000000e+00  8.158800e-01      3
 OG3C51  CG3C50  OG3C51  CG3C51     9  1.800000e+02  8.368000e-02      2
 OG3C51  CG3C50  OG3C51  CG3C51     9  1.800000e+02  6.903600e+00      3
 OG3C51  CG3C50  OG3C51  CG3C52     9  0.000000e+00  2.510400e+00      2
 OG3C51  CG3C50  OG3C51  CG3C52     9  1.800000e+02  6.903600e+00      3
 OG3C51  CG3C51  CG3C52    HGA2     9  0.000000e+00  7.949600e-01      3
 OG3C51  CG3C51  CG3C52  OG3C51     9  0.000000e+00  1.087840e+00      3
    OHL      PL    OSLP    CTL2     9  0.000000e+00  3.974800e+00      2
    OHL      PL    OSLP    CTL2     9  0.000000e+00  2.092000e+00      3
    OSL      CL    CTL2    HAL2     9  1.800000e+02  0.000000e+00      6
    OSL    CTL2    CTL1     OSL     9  6.000000e+01 -1.794936e+00      4
    OSL    CTL2    CTL1     OSL     9  0.000000e+00  2.568976e+00      3
    OSL    CTL2    CTL1     OSL     9  6.000000e+01 -4.811600e-01      2
    OSL    CTL2    CTL1     OSL     9  1.800000e+02  2.941352e+00      1
   OSLP    CTL2    CTL1     OSL     9  0.000000e+00  0.000000e+00      4
   OSLP    CTL2    CTL1     OSL     9  1.800000e+02  2.539688e+00      3
   OSLP    CTL2    CTL1     OSL     9  6.000000e+01  1.062736e+00      2
   OSLP    CTL2    CTL1     OSL     9  1.800000e+02  8.434944e+00      1
   OSLP      PL    OSLP    CTL2     9  1.800000e+02  5.020800e+00      1
   OSLP      PL    OSLP    CTL2     9  1.800000e+02  4.184000e-01      2
   OSLP      PL    OSLP    CTL2     9  1.800000e+02  4.184000e-01      3
     PL    OSLP    CTL2    CTL1     9  0.000000e+00  1.702888e+00      2
     PL    OSLP    CTL2    CTL1     9  1.800000e+02  1.008344e+00      1
      X    CEL1    CEL1       X     9  1.800000e+02  1.882800e+00      1
      X    CEL1    CEL1       X     9  1.800000e+02  3.556400e+01      2
      X      CL     OSL       X     9  1.800000e+02  8.577200e+00      2
      X    CTL1    CTL2       X     9  0.000000e+00  8.368000e-01      3
      X    CTL1    CTL3       X     9  0.000000e+00  8.368000e-01      3
      X    CTL1     OHL       X     9  0.000000e+00  5.857600e-01      3
      X    CTL1     OSL       X     9  0.000000e+00  0.000000e+00      3
      X    CTL2      CL       X     9  1.800000e+02  2.092000e-01      6
      X    CTL2    CTL2       X     9  0.000000e+00  7.949600e-01      3
      X    CTL2    CTL3       X     9  0.000000e+00  6.694400e-01      3
      X    CTL2     NTL       X     9  0.000000e+00  1.087840e+00      3
      X    CTL2     OHL       X     9  0.000000e+00  5.857600e-01      3
      X    CTL2     OSL       X     9  0.000000e+00  0.000000e+00      3
      X    CTL2    OSLP       X     9  0.000000e+00  0.000000e+00      3
      X    CTL5     NTL       X     9  0.000000e+00  9.623200e-01      3
      X     OHL      PL       X     9  0.000000e+00  1.255200e+00      3

[ dihedraltypes ]
; i	j	k	l	func	q0	Kq
    OBL       X       X      CL     2  0.000000e+00  8.368000e+02
