;;
;; Generated by CHARMM-GUI FF-Converter
;;
;; Correspondance:
;; jul316@lehigh.edu or wonpil@lehigh.edu
;;
;; GROMACS topology file for LLPA
;;


[ moleculetype ]
; name	nrexcl
LLPA	     3

[ atoms ]
; nr	type	resnr	residu	atom	cgnr	charge	mass
     1         PL     88     LLPA      P      1     1.500000    30.9740   ; qtot  1.500
     2        O2L     88     LLPA    O13      2    -0.820000    15.9994   ; qtot  0.680
     3        O2L     88     LLPA    O14      3    -0.820000    15.9994   ; qtot -0.140
     4        OHL     88     LLPA    O12      4    -0.680000    15.9994   ; qtot -0.820
     5        HOL     88     LLPA    H12      5     0.340000     1.0080   ; qtot -0.480
     6       OSLP     88     LLPA    O11      6    -0.620000    15.9994   ; qtot -1.100
     7       CTL2     88     LLPA     C1      7    -0.080000    12.0110   ; qtot -1.180
     8       HAL2     88     LLPA     HA      8     0.090000     1.0080   ; qtot -1.090
     9       HAL2     88     LLPA     HB      9     0.090000     1.0080   ; qtot -1.000
    10       CTL1     88     LLPA     C2     10     0.170000    12.0110   ; qtot -0.830
    11       HAL1     88     LLPA     HS     11     0.090000     1.0080   ; qtot -0.740
    12        OSL     88     LLPA    O21     12    -0.490000    15.9994   ; qtot -1.230
    13         CL     88     LLPA    C21     13     0.900000    12.0110   ; qtot -0.330
    14        OBL     88     LLPA    O22     14    -0.630000    15.9994   ; qtot -0.960
    15       CTL2     88     LLPA    C22     15    -0.220000    12.0110   ; qtot -1.180
    16       HAL2     88     LLPA    H2R     16     0.090000     1.0080   ; qtot -1.090
    17       HAL2     88     LLPA    H2S     17     0.090000     1.0080   ; qtot -1.000
    18       CTL2     88     LLPA     C3     18     0.080000    12.0110   ; qtot -0.920
    19       HAL2     88     LLPA     HX     19     0.090000     1.0080   ; qtot -0.830
    20       HAL2     88     LLPA     HY     20     0.090000     1.0080   ; qtot -0.740
    21        OSL     88     LLPA    O31     21    -0.490000    15.9994   ; qtot -1.230
    22         CL     88     LLPA    C31     22     0.900000    12.0110   ; qtot -0.330
    23        OBL     88     LLPA    O32     23    -0.630000    15.9994   ; qtot -0.960
    24       CTL2     88     LLPA    C32     24    -0.220000    12.0110   ; qtot -1.180
    25       HAL2     88     LLPA    H2X     25     0.090000     1.0080   ; qtot -1.090
    26       HAL2     88     LLPA    H2Y     26     0.090000     1.0080   ; qtot -1.000
    27       CTL2     88     LLPA    C23     27    -0.180000    12.0110   ; qtot -1.180
    28       HAL2     88     LLPA    H3R     28     0.090000     1.0080   ; qtot -1.090
    29       HAL2     88     LLPA    H3S     29     0.090000     1.0080   ; qtot -1.000
    30       CTL2     88     LLPA    C24     30    -0.180000    12.0110   ; qtot -1.180
    31       HAL2     88     LLPA    H4R     31     0.090000     1.0080   ; qtot -1.090
    32       HAL2     88     LLPA    H4S     32     0.090000     1.0080   ; qtot -1.000
    33       CTL2     88     LLPA    C25     33    -0.180000    12.0110   ; qtot -1.180
    34       HAL2     88     LLPA    H5R     34     0.090000     1.0080   ; qtot -1.090
    35       HAL2     88     LLPA    H5S     35     0.090000     1.0080   ; qtot -1.000
    36       CTL2     88     LLPA    C26     36    -0.180000    12.0110   ; qtot -1.180
    37       HAL2     88     LLPA    H6R     37     0.090000     1.0080   ; qtot -1.090
    38       HAL2     88     LLPA    H6S     38     0.090000     1.0080   ; qtot -1.000
    39       CTL2     88     LLPA    C27     39    -0.180000    12.0110   ; qtot -1.180
    40       HAL2     88     LLPA    H7R     40     0.090000     1.0080   ; qtot -1.090
    41       HAL2     88     LLPA    H7S     41     0.090000     1.0080   ; qtot -1.000
    42       CTL2     88     LLPA    C28     42    -0.180000    12.0110   ; qtot -1.180
    43       HAL2     88     LLPA    H8R     43     0.090000     1.0080   ; qtot -1.090
    44       HAL2     88     LLPA    H8S     44     0.090000     1.0080   ; qtot -1.000
    45       CEL1     88     LLPA    C29     45    -0.150000    12.0110   ; qtot -1.150
    46       HEL1     88     LLPA    H9R     46     0.150000     1.0080   ; qtot -1.000
    47       CEL1     88     LLPA   C210     47    -0.150000    12.0110   ; qtot -1.150
    48       HEL1     88     LLPA   H10R     48     0.150000     1.0080   ; qtot -1.000
    49       CTL2     88     LLPA   C211     49    -0.180000    12.0110   ; qtot -1.180
    50       HAL2     88     LLPA   H11R     50     0.090000     1.0080   ; qtot -1.090
    51       HAL2     88     LLPA   H11S     51     0.090000     1.0080   ; qtot -1.000
    52       CEL1     88     LLPA   C212     52    -0.150000    12.0110   ; qtot -1.150
    53       HEL1     88     LLPA   H12R     53     0.150000     1.0080   ; qtot -1.000
    54       CEL1     88     LLPA   C213     54    -0.150000    12.0110   ; qtot -1.150
    55       HEL1     88     LLPA   H13R     55     0.150000     1.0080   ; qtot -1.000
    56       CTL2     88     LLPA   C214     56    -0.180000    12.0110   ; qtot -1.180
    57       HAL2     88     LLPA   H14R     57     0.090000     1.0080   ; qtot -1.090
    58       HAL2     88     LLPA   H14S     58     0.090000     1.0080   ; qtot -1.000
    59       CEL1     88     LLPA   C215     59    -0.150000    12.0110   ; qtot -1.150
    60       HEL1     88     LLPA   H15R     60     0.150000     1.0080   ; qtot -1.000
    61       CEL1     88     LLPA   C216     61    -0.150000    12.0110   ; qtot -1.150
    62       HEL1     88     LLPA   H16R     62     0.150000     1.0080   ; qtot -1.000
    63       CTL2     88     LLPA   C217     63    -0.180000    12.0110   ; qtot -1.180
    64       HAL2     88     LLPA   H17R     64     0.090000     1.0080   ; qtot -1.090
    65       HAL2     88     LLPA   H17S     65     0.090000     1.0080   ; qtot -1.000
    66       CTL3     88     LLPA   C218     66    -0.270000    12.0110   ; qtot -1.270
    67       HAL3     88     LLPA   H18R     67     0.090000     1.0080   ; qtot -1.180
    68       HAL3     88     LLPA   H18S     68     0.090000     1.0080   ; qtot -1.090
    69       HAL3     88     LLPA   H18T     69     0.090000     1.0080   ; qtot -1.000
    70       CTL2     88     LLPA    C33     70    -0.180000    12.0110   ; qtot -1.180
    71       HAL2     88     LLPA    H3X     71     0.090000     1.0080   ; qtot -1.090
    72       HAL2     88     LLPA    H3Y     72     0.090000     1.0080   ; qtot -1.000
    73       CTL2     88     LLPA    C34     73    -0.180000    12.0110   ; qtot -1.180
    74       HAL2     88     LLPA    H4X     74     0.090000     1.0080   ; qtot -1.090
    75       HAL2     88     LLPA    H4Y     75     0.090000     1.0080   ; qtot -1.000
    76       CTL2     88     LLPA    C35     76    -0.180000    12.0110   ; qtot -1.180
    77       HAL2     88     LLPA    H5X     77     0.090000     1.0080   ; qtot -1.090
    78       HAL2     88     LLPA    H5Y     78     0.090000     1.0080   ; qtot -1.000
    79       CTL2     88     LLPA    C36     79    -0.180000    12.0110   ; qtot -1.180
    80       HAL2     88     LLPA    H6X     80     0.090000     1.0080   ; qtot -1.090
    81       HAL2     88     LLPA    H6Y     81     0.090000     1.0080   ; qtot -1.000
    82       CTL2     88     LLPA    C37     82    -0.180000    12.0110   ; qtot -1.180
    83       HAL2     88     LLPA    H7X     83     0.090000     1.0080   ; qtot -1.090
    84       HAL2     88     LLPA    H7Y     84     0.090000     1.0080   ; qtot -1.000
    85       CTL2     88     LLPA    C38     85    -0.180000    12.0110   ; qtot -1.180
    86       HAL2     88     LLPA    H8X     86     0.090000     1.0080   ; qtot -1.090
    87       HAL2     88     LLPA    H8Y     87     0.090000     1.0080   ; qtot -1.000
    88       CEL1     88     LLPA    C39     88    -0.150000    12.0110   ; qtot -1.150
    89       HEL1     88     LLPA    H9X     89     0.150000     1.0080   ; qtot -1.000
    90       CEL1     88     LLPA   C310     90    -0.150000    12.0110   ; qtot -1.150
    91       HEL1     88     LLPA   H10X     91     0.150000     1.0080   ; qtot -1.000
    92       CTL2     88     LLPA   C311     92    -0.180000    12.0110   ; qtot -1.180
    93       HAL2     88     LLPA   H11X     93     0.090000     1.0080   ; qtot -1.090
    94       HAL2     88     LLPA   H11Y     94     0.090000     1.0080   ; qtot -1.000
    95       CEL1     88     LLPA   C312     95    -0.150000    12.0110   ; qtot -1.150
    96       HEL1     88     LLPA   H12X     96     0.150000     1.0080   ; qtot -1.000
    97       CEL1     88     LLPA   C313     97    -0.150000    12.0110   ; qtot -1.150
    98       HEL1     88     LLPA   H13X     98     0.150000     1.0080   ; qtot -1.000
    99       CTL2     88     LLPA   C314     99    -0.180000    12.0110   ; qtot -1.180
   100       HAL2     88     LLPA   H14X    100     0.090000     1.0080   ; qtot -1.090
   101       HAL2     88     LLPA   H14Y    101     0.090000     1.0080   ; qtot -1.000
   102       CTL2     88     LLPA   C315    102    -0.180000    12.0110   ; qtot -1.180
   103       HAL2     88     LLPA   H15X    103     0.090000     1.0080   ; qtot -1.090
   104       HAL2     88     LLPA   H15Y    104     0.090000     1.0080   ; qtot -1.000
   105       CTL2     88     LLPA   C316    105    -0.180000    12.0110   ; qtot -1.180
   106       HAL2     88     LLPA   H16X    106     0.090000     1.0080   ; qtot -1.090
   107       HAL2     88     LLPA   H16Y    107     0.090000     1.0080   ; qtot -1.000
   108       CTL2     88     LLPA   C317    108    -0.180000    12.0110   ; qtot -1.180
   109       HAL2     88     LLPA   H17X    109     0.090000     1.0080   ; qtot -1.090
   110       HAL2     88     LLPA   H17Y    110     0.090000     1.0080   ; qtot -1.000
   111       CTL3     88     LLPA   C318    111    -0.270000    12.0110   ; qtot -1.270
   112       HAL3     88     LLPA   H18X    112     0.090000     1.0080   ; qtot -1.180
   113       HAL3     88     LLPA   H18Y    113     0.090000     1.0080   ; qtot -1.090
   114       HAL3     88     LLPA   H18Z    114     0.090000     1.0080   ; qtot -1.000

[ bonds ]
; ai	aj	funct	b0	Kb
    1     2     1
    1     3     1
    4     1     1
    1     6     1
    4     5     1
    6     7     1
    7     8     1
    7     9     1
    7    10     1
   10    11     1
   10    12     1
   10    18     1
   12    13     1
   13    14     1
   13    15     1
   15    16     1
   15    17     1
   15    27     1
   18    19     1
   18    20     1
   18    21     1
   21    22     1
   22    23     1
   22    24     1
   24    25     1
   24    26     1
   24    70     1
   27    28     1
   27    29     1
   27    30     1
   30    31     1
   30    32     1
   30    33     1
   33    34     1
   33    35     1
   33    36     1
   36    37     1
   36    38     1
   36    39     1
   39    40     1
   39    41     1
   39    42     1
   42    43     1
   42    44     1
   42    45     1
   45    46     1
   45    47     1
   47    48     1
   47    49     1
   49    50     1
   49    51     1
   49    52     1
   52    53     1
   52    54     1
   54    55     1
   54    56     1
   56    57     1
   56    58     1
   56    59     1
   59    60     1
   59    61     1
   61    62     1
   61    63     1
   63    64     1
   63    65     1
   63    66     1
   66    67     1
   66    68     1
   66    69     1
   70    71     1
   70    72     1
   70    73     1
   73    74     1
   73    75     1
   73    76     1
   76    77     1
   76    78     1
   76    79     1
   79    80     1
   79    81     1
   79    82     1
   82    83     1
   82    84     1
   82    85     1
   85    86     1
   85    87     1
   85    88     1
   88    89     1
   88    90     1
   90    91     1
   90    92     1
   92    93     1
   92    94     1
   92    95     1
   95    96     1
   95    97     1
   97    98     1
   97    99     1
   99   100     1
   99   101     1
   99   102     1
  102   103     1
  102   104     1
  102   105     1
  105   106     1
  105   107     1
  105   108     1
  108   109     1
  108   110     1
  108   111     1
  111   112     1
  111   113     1
  111   114     1

[ pairs ]
; ai	aj	funct	c6	c12 or
; ai	aj	funct	fudgeQQ	q1	q2	c6	c12
    1     8     1
    1     9     1
    1    10     1
    2     5     1
    2     7     1
    3     5     1
    3     7     1
    4     7     1
    5     6     1
    6    11     1
    6    12     1
    6    18     1
    7    13     1
    7    19     1
    7    20     1
    7    21     1
    8    11     1
    8    12     1
    8    18     1
    9    11     1
    9    12     1
    9    18     1
   10    14     1
   10    15     1
   10    22     1
   11    13     1
   11    19     1
   11    20     1
   11    21     1
   12    16     1
   12    17     1
   12    19     1
   12    20     1
   12    21     1
   12    27     1
   13    18     1
   13    28     1
   13    29     1
   13    30     1
   14    16     1
   14    17     1
   14    27     1
   15    31     1
   15    32     1
   15    33     1
   16    28     1
   16    29     1
   16    30     1
   17    28     1
   17    29     1
   17    30     1
   18    23     1
   18    24     1
   19    22     1
   20    22     1
   21    25     1
   21    26     1
   21    70     1
   22    71     1
   22    72     1
   22    73     1
   23    25     1
   23    26     1
   23    70     1
   24    74     1
   24    75     1
   24    76     1
   25    71     1
   25    72     1
   25    73     1
   26    71     1
   26    72     1
   26    73     1
   27    34     1
   27    35     1
   27    36     1
   28    31     1
   28    32     1
   28    33     1
   29    31     1
   29    32     1
   29    33     1
   30    37     1
   30    38     1
   30    39     1
   31    34     1
   31    35     1
   31    36     1
   32    34     1
   32    35     1
   32    36     1
   33    40     1
   33    41     1
   33    42     1
   34    37     1
   34    38     1
   34    39     1
   35    37     1
   35    38     1
   35    39     1
   36    43     1
   36    44     1
   36    45     1
   37    40     1
   37    41     1
   37    42     1
   38    40     1
   38    41     1
   38    42     1
   39    46     1
   39    47     1
   40    43     1
   40    44     1
   40    45     1
   41    43     1
   41    44     1
   41    45     1
   42    48     1
   42    49     1
   43    46     1
   43    47     1
   44    46     1
   44    47     1
   45    50     1
   45    51     1
   45    52     1
   46    48     1
   46    49     1
   47    53     1
   47    54     1
   48    50     1
   48    51     1
   48    52     1
   49    55     1
   49    56     1
   50    53     1
   50    54     1
   51    53     1
   51    54     1
   52    57     1
   52    58     1
   52    59     1
   53    55     1
   53    56     1
   54    60     1
   54    61     1
   55    57     1
   55    58     1
   55    59     1
   56    62     1
   56    63     1
   57    60     1
   57    61     1
   58    60     1
   58    61     1
   59    64     1
   59    65     1
   59    66     1
   60    62     1
   60    63     1
   61    67     1
   61    68     1
   61    69     1
   62    64     1
   62    65     1
   62    66     1
   64    67     1
   64    68     1
   64    69     1
   65    67     1
   65    68     1
   65    69     1
   70    77     1
   70    78     1
   70    79     1
   71    74     1
   71    75     1
   71    76     1
   72    74     1
   72    75     1
   72    76     1
   73    80     1
   73    81     1
   73    82     1
   74    77     1
   74    78     1
   74    79     1
   75    77     1
   75    78     1
   75    79     1
   76    83     1
   76    84     1
   76    85     1
   77    80     1
   77    81     1
   77    82     1
   78    80     1
   78    81     1
   78    82     1
   79    86     1
   79    87     1
   79    88     1
   80    83     1
   80    84     1
   80    85     1
   81    83     1
   81    84     1
   81    85     1
   82    89     1
   82    90     1
   83    86     1
   83    87     1
   83    88     1
   84    86     1
   84    87     1
   84    88     1
   85    91     1
   85    92     1
   86    89     1
   86    90     1
   87    89     1
   87    90     1
   88    93     1
   88    94     1
   88    95     1
   89    91     1
   89    92     1
   90    96     1
   90    97     1
   91    93     1
   91    94     1
   91    95     1
   92    98     1
   92    99     1
   93    96     1
   93    97     1
   94    96     1
   94    97     1
   95   100     1
   95   101     1
   95   102     1
   96    98     1
   96    99     1
   97   103     1
   97   104     1
   97   105     1
   98   100     1
   98   101     1
   98   102     1
   99   106     1
   99   107     1
   99   108     1
  100   103     1
  100   104     1
  100   105     1
  101   103     1
  101   104     1
  101   105     1
  102   109     1
  102   110     1
  102   111     1
  103   106     1
  103   107     1
  103   108     1
  104   106     1
  104   107     1
  104   108     1
  105   112     1
  105   113     1
  105   114     1
  106   109     1
  106   110     1
  106   111     1
  107   109     1
  107   110     1
  107   111     1
  109   112     1
  109   113     1
  109   114     1
  110   112     1
  110   113     1
  110   114     1

[ angles ] 
; ai	aj	ak	funct	th0	cth	S0	Kub
    2     1     3     5
    2     1     4     5
    2     1     6     5
    3     1     4     5
    3     1     6     5
    4     1     6     5
    1     4     5     5
    1     6     7     5
    6     7     8     5
    6     7     9     5
    6     7    10     5
    8     7     9     5
    8     7    10     5
    9     7    10     5
    7    10    11     5
    7    10    12     5
    7    10    18     5
   11    10    12     5
   11    10    18     5
   12    10    18     5
   10    12    13     5
   12    13    14     5
   12    13    15     5
   14    13    15     5
   13    15    16     5
   13    15    17     5
   13    15    27     5
   16    15    17     5
   16    15    27     5
   17    15    27     5
   10    18    19     5
   10    18    20     5
   10    18    21     5
   19    18    20     5
   19    18    21     5
   20    18    21     5
   18    21    22     5
   21    22    23     5
   21    22    24     5
   23    22    24     5
   22    24    25     5
   22    24    26     5
   22    24    70     5
   25    24    26     5
   25    24    70     5
   26    24    70     5
   15    27    28     5
   15    27    29     5
   15    27    30     5
   28    27    29     5
   28    27    30     5
   29    27    30     5
   27    30    31     5
   27    30    32     5
   27    30    33     5
   31    30    32     5
   31    30    33     5
   32    30    33     5
   30    33    34     5
   30    33    35     5
   30    33    36     5
   34    33    35     5
   34    33    36     5
   35    33    36     5
   33    36    37     5
   33    36    38     5
   33    36    39     5
   37    36    38     5
   37    36    39     5
   38    36    39     5
   36    39    40     5
   36    39    41     5
   36    39    42     5
   40    39    41     5
   40    39    42     5
   41    39    42     5
   39    42    43     5
   39    42    44     5
   39    42    45     5
   43    42    44     5
   43    42    45     5
   44    42    45     5
   42    45    46     5
   42    45    47     5
   46    45    47     5
   45    47    48     5
   45    47    49     5
   48    47    49     5
   47    49    50     5
   47    49    51     5
   47    49    52     5
   50    49    51     5
   50    49    52     5
   51    49    52     5
   49    52    53     5
   49    52    54     5
   53    52    54     5
   52    54    55     5
   52    54    56     5
   55    54    56     5
   54    56    57     5
   54    56    58     5
   54    56    59     5
   57    56    58     5
   57    56    59     5
   58    56    59     5
   56    59    60     5
   56    59    61     5
   60    59    61     5
   59    61    62     5
   59    61    63     5
   62    61    63     5
   61    63    64     5
   61    63    65     5
   61    63    66     5
   64    63    65     5
   64    63    66     5
   65    63    66     5
   63    66    67     5
   63    66    68     5
   63    66    69     5
   67    66    68     5
   67    66    69     5
   68    66    69     5
   24    70    71     5
   24    70    72     5
   24    70    73     5
   71    70    72     5
   71    70    73     5
   72    70    73     5
   70    73    74     5
   70    73    75     5
   70    73    76     5
   74    73    75     5
   74    73    76     5
   75    73    76     5
   73    76    77     5
   73    76    78     5
   73    76    79     5
   77    76    78     5
   77    76    79     5
   78    76    79     5
   76    79    80     5
   76    79    81     5
   76    79    82     5
   80    79    81     5
   80    79    82     5
   81    79    82     5
   79    82    83     5
   79    82    84     5
   79    82    85     5
   83    82    84     5
   83    82    85     5
   84    82    85     5
   82    85    86     5
   82    85    87     5
   82    85    88     5
   86    85    87     5
   86    85    88     5
   87    85    88     5
   85    88    89     5
   85    88    90     5
   89    88    90     5
   88    90    91     5
   88    90    92     5
   91    90    92     5
   90    92    93     5
   90    92    94     5
   90    92    95     5
   93    92    94     5
   93    92    95     5
   94    92    95     5
   92    95    96     5
   92    95    97     5
   96    95    97     5
   95    97    98     5
   95    97    99     5
   98    97    99     5
   97    99   100     5
   97    99   101     5
   97    99   102     5
  100    99   101     5
  100    99   102     5
  101    99   102     5
   99   102   103     5
   99   102   104     5
   99   102   105     5
  103   102   104     5
  103   102   105     5
  104   102   105     5
  102   105   106     5
  102   105   107     5
  102   105   108     5
  106   105   107     5
  106   105   108     5
  107   105   108     5
  105   108   109     5
  105   108   110     5
  105   108   111     5
  109   108   110     5
  109   108   111     5
  110   108   111     5
  108   111   112     5
  108   111   113     5
  108   111   114     5
  112   111   113     5
  112   111   114     5
  113   111   114     5

[ dihedrals ]
; ai	aj	ak	al	funct	phi0	cp	mult
    2     1     4     5     9
    3     1     4     5     9
    2     1     6     7     9
    3     1     6     7     9
    4     1     6     7     9
    5     4     1     6     9
    1     6     7     8     9
    1     6     7     9     9
    1     6     7    10     9
    6     7    10    11     9
    6     7    10    12     9
    6     7    10    18     9
    8     7    10    11     9
    8     7    10    12     9
    8     7    10    18     9
    9     7    10    11     9
    9     7    10    12     9
    9     7    10    18     9
    7    10    12    13     9
   11    10    12    13     9
    7    10    18    19     9
    7    10    18    20     9
    7    10    18    21     9
   11    10    18    19     9
   11    10    18    20     9
   11    10    18    21     9
   12    10    18    19     9
   12    10    18    20     9
   12    10    18    21     9
   13    12    10    18     9
   10    12    13    14     9
   10    12    13    15     9
   12    13    15    16     9
   12    13    15    17     9
   12    13    15    27     9
   14    13    15    16     9
   14    13    15    17     9
   14    13    15    27     9
   13    15    27    28     9
   13    15    27    29     9
   13    15    27    30     9
   16    15    27    28     9
   16    15    27    29     9
   16    15    27    30     9
   17    15    27    28     9
   17    15    27    29     9
   17    15    27    30     9
   10    18    21    22     9
   19    18    21    22     9
   20    18    21    22     9
   18    21    22    23     9
   18    21    22    24     9
   21    22    24    25     9
   21    22    24    26     9
   21    22    24    70     9
   23    22    24    25     9
   23    22    24    26     9
   23    22    24    70     9
   22    24    70    71     9
   22    24    70    72     9
   22    24    70    73     9
   25    24    70    71     9
   25    24    70    72     9
   25    24    70    73     9
   26    24    70    71     9
   26    24    70    72     9
   26    24    70    73     9
   15    27    30    31     9
   15    27    30    32     9
   15    27    30    33     9
   28    27    30    31     9
   28    27    30    32     9
   28    27    30    33     9
   29    27    30    31     9
   29    27    30    32     9
   29    27    30    33     9
   27    30    33    34     9
   27    30    33    35     9
   27    30    33    36     9
   31    30    33    34     9
   31    30    33    35     9
   31    30    33    36     9
   32    30    33    34     9
   32    30    33    35     9
   32    30    33    36     9
   30    33    36    37     9
   30    33    36    38     9
   30    33    36    39     9
   34    33    36    37     9
   34    33    36    38     9
   34    33    36    39     9
   35    33    36    37     9
   35    33    36    38     9
   35    33    36    39     9
   33    36    39    40     9
   33    36    39    41     9
   33    36    39    42     9
   37    36    39    40     9
   37    36    39    41     9
   37    36    39    42     9
   38    36    39    40     9
   38    36    39    41     9
   38    36    39    42     9
   36    39    42    43     9
   36    39    42    44     9
   36    39    42    45     9
   40    39    42    43     9
   40    39    42    44     9
   40    39    42    45     9
   41    39    42    43     9
   41    39    42    44     9
   41    39    42    45     9
   39    42    45    46     9
   39    42    45    47     9
   43    42    45    46     9
   43    42    45    47     9
   44    42    45    46     9
   44    42    45    47     9
   42    45    47    48     9
   42    45    47    49     9
   46    45    47    48     9
   46    45    47    49     9
   45    47    49    50     9
   45    47    49    51     9
   45    47    49    52     9
   48    47    49    50     9
   48    47    49    51     9
   48    47    49    52     9
   47    49    52    53     9
   47    49    52    54     9
   50    49    52    53     9
   50    49    52    54     9
   51    49    52    53     9
   51    49    52    54     9
   49    52    54    55     9
   49    52    54    56     9
   53    52    54    55     9
   53    52    54    56     9
   52    54    56    57     9
   52    54    56    58     9
   52    54    56    59     9
   55    54    56    57     9
   55    54    56    58     9
   55    54    56    59     9
   54    56    59    60     9
   54    56    59    61     9
   57    56    59    60     9
   57    56    59    61     9
   58    56    59    60     9
   58    56    59    61     9
   56    59    61    62     9
   56    59    61    63     9
   60    59    61    62     9
   60    59    61    63     9
   59    61    63    64     9
   59    61    63    65     9
   59    61    63    66     9
   62    61    63    64     9
   62    61    63    65     9
   62    61    63    66     9
   61    63    66    67     9
   61    63    66    68     9
   61    63    66    69     9
   64    63    66    67     9
   64    63    66    68     9
   64    63    66    69     9
   65    63    66    67     9
   65    63    66    68     9
   65    63    66    69     9
   24    70    73    74     9
   24    70    73    75     9
   24    70    73    76     9
   71    70    73    74     9
   71    70    73    75     9
   71    70    73    76     9
   72    70    73    74     9
   72    70    73    75     9
   72    70    73    76     9
   70    73    76    77     9
   70    73    76    78     9
   70    73    76    79     9
   74    73    76    77     9
   74    73    76    78     9
   74    73    76    79     9
   75    73    76    77     9
   75    73    76    78     9
   75    73    76    79     9
   73    76    79    80     9
   73    76    79    81     9
   73    76    79    82     9
   77    76    79    80     9
   77    76    79    81     9
   77    76    79    82     9
   78    76    79    80     9
   78    76    79    81     9
   78    76    79    82     9
   76    79    82    83     9
   76    79    82    84     9
   76    79    82    85     9
   80    79    82    83     9
   80    79    82    84     9
   80    79    82    85     9
   81    79    82    83     9
   81    79    82    84     9
   81    79    82    85     9
   79    82    85    86     9
   79    82    85    87     9
   79    82    85    88     9
   83    82    85    86     9
   83    82    85    87     9
   83    82    85    88     9
   84    82    85    86     9
   84    82    85    87     9
   84    82    85    88     9
   82    85    88    89     9
   82    85    88    90     9
   86    85    88    89     9
   86    85    88    90     9
   87    85    88    89     9
   87    85    88    90     9
   85    88    90    91     9
   85    88    90    92     9
   89    88    90    91     9
   89    88    90    92     9
   88    90    92    93     9
   88    90    92    94     9
   88    90    92    95     9
   91    90    92    93     9
   91    90    92    94     9
   91    90    92    95     9
   90    92    95    96     9
   90    92    95    97     9
   93    92    95    96     9
   93    92    95    97     9
   94    92    95    96     9
   94    92    95    97     9
   92    95    97    98     9
   92    95    97    99     9
   96    95    97    98     9
   96    95    97    99     9
   95    97    99   100     9
   95    97    99   101     9
   95    97    99   102     9
   98    97    99   100     9
   98    97    99   101     9
   98    97    99   102     9
   97    99   102   103     9
   97    99   102   104     9
   97    99   102   105     9
  100    99   102   103     9
  100    99   102   104     9
  100    99   102   105     9
  101    99   102   103     9
  101    99   102   104     9
  101    99   102   105     9
   99   102   105   106     9
   99   102   105   107     9
   99   102   105   108     9
  103   102   105   106     9
  103   102   105   107     9
  103   102   105   108     9
  104   102   105   106     9
  104   102   105   107     9
  104   102   105   108     9
  102   105   108   109     9
  102   105   108   110     9
  102   105   108   111     9
  106   105   108   109     9
  106   105   108   110     9
  106   105   108   111     9
  107   105   108   109     9
  107   105   108   110     9
  107   105   108   111     9
  105   108   111   112     9
  105   108   111   113     9
  105   108   111   114     9
  109   108   111   112     9
  109   108   111   113     9
  109   108   111   114     9
  110   108   111   112     9
  110   108   111   113     9
  110   108   111   114     9

[ dihedrals ]
; ai	aj	ak	al	funct	q0	cq
   13    12    15    14     2
   22    21    24    23     2

#ifdef POSRES
[ position_restraints ]
    1     1     0.0             0.0            POSRES_FC_LIPID
#endif

#ifdef DIHRES
[ dihedral_restraints ]
    7    18    10    12     1   -120.0      2.5       DIHRES_FC
   42    45    47    49     1      0.0      0.0       DIHRES_FC
   49    52    54    56     1      0.0      0.0       DIHRES_FC
   56    59    61    63     1      0.0      0.0       DIHRES_FC
   85    88    90    92     1      0.0      0.0       DIHRES_FC
   92    95    97    99     1      0.0      0.0       DIHRES_FC
#endif
