;;
;; Generated by CHARMM-GUI FF-Converter
;;
;; Correspondance:
;; jul316@lehigh.edu or wonpil@lehigh.edu
;;
;; GROMACS topology file for LNNTG
;;


[ moleculetype ]
; name	nrexcl
LNNTG	     3

[ atoms ]
; nr	type	resnr	residu	atom	cgnr	charge	mass
     1       CTL2    162    LNNTG     C1      1     0.080000    12.0110   ; qtot  0.080
     2       HAL2    162    LNNTG     HA      2     0.090000     1.0080   ; qtot  0.170
     3       HAL2    162    LNNTG     HB      3     0.090000     1.0080   ; qtot  0.260
     4        OSL    162    LNNTG    O11      4    -0.490000    15.9994   ; qtot -0.230
     5        OBL    162    LNNTG    O12      5    -0.630000    15.9994   ; qtot -0.860
     6         CL    162    LNNTG    C11      6     0.900000    12.0110   ; qtot  0.040
     7       CTL2    162    LNNTG    C12      7    -0.220000    12.0110   ; qtot -0.180
     8       HAL2    162    LNNTG    H2P      8     0.090000     1.0080   ; qtot -0.090
     9       HAL2    162    LNNTG    H2Q      9     0.090000     1.0080   ; qtot  0.000
    10       CTL1    162    LNNTG     C2     10     0.170000    12.0110   ; qtot  0.170
    11       HAL1    162    LNNTG     HS     11     0.090000     1.0080   ; qtot  0.260
    12        OSL    162    LNNTG    O21     12    -0.490000    15.9994   ; qtot -0.230
    13         CL    162    LNNTG    C21     13     0.900000    12.0110   ; qtot  0.670
    14        OBL    162    LNNTG    O22     14    -0.630000    15.9994   ; qtot  0.040
    15       CTL2    162    LNNTG    C22     15    -0.220000    12.0110   ; qtot -0.180
    16       HAL2    162    LNNTG    H2R     16     0.090000     1.0080   ; qtot -0.090
    17       HAL2    162    LNNTG    H2S     17     0.090000     1.0080   ; qtot  0.000
    18       CTL2    162    LNNTG     C3     18     0.080000    12.0110   ; qtot  0.080
    19       HAL2    162    LNNTG     HX     19     0.090000     1.0080   ; qtot  0.170
    20       HAL2    162    LNNTG     HY     20     0.090000     1.0080   ; qtot  0.260
    21        OSL    162    LNNTG    O31     21    -0.490000    15.9994   ; qtot -0.230
    22         CL    162    LNNTG    C31     22     0.900000    12.0110   ; qtot  0.670
    23        OBL    162    LNNTG    O32     23    -0.630000    15.9994   ; qtot  0.040
    24       CTL2    162    LNNTG    C32     24    -0.220000    12.0110   ; qtot -0.180
    25       HAL2    162    LNNTG    H2X     25     0.090000     1.0080   ; qtot -0.090
    26       HAL2    162    LNNTG    H2Y     26     0.090000     1.0080   ; qtot  0.000
    27       CTL2    162    LNNTG    C13     27    -0.180000    12.0110   ; qtot -0.180
    28       HAL2    162    LNNTG    H3P     28     0.090000     1.0080   ; qtot -0.090
    29       HAL2    162    LNNTG    H3Q     29     0.090000     1.0080   ; qtot  0.000
    30       CTL2    162    LNNTG    C14     30    -0.180000    12.0110   ; qtot -0.180
    31       HAL2    162    LNNTG    H4P     31     0.090000     1.0080   ; qtot -0.090
    32       HAL2    162    LNNTG    H4Q     32     0.090000     1.0080   ; qtot  0.000
    33       CTL2    162    LNNTG    C15     33    -0.180000    12.0110   ; qtot -0.180
    34       HAL2    162    LNNTG    H5P     34     0.090000     1.0080   ; qtot -0.090
    35       HAL2    162    LNNTG    H5Q     35     0.090000     1.0080   ; qtot  0.000
    36       CTL2    162    LNNTG    C16     36    -0.180000    12.0110   ; qtot -0.180
    37       HAL2    162    LNNTG    H6P     37     0.090000     1.0080   ; qtot -0.090
    38       HAL2    162    LNNTG    H6Q     38     0.090000     1.0080   ; qtot  0.000
    39       CTL2    162    LNNTG    C17     39    -0.180000    12.0110   ; qtot -0.180
    40       HAL2    162    LNNTG    H7P     40     0.090000     1.0080   ; qtot -0.090
    41       HAL2    162    LNNTG    H7Q     41     0.090000     1.0080   ; qtot  0.000
    42       CTL2    162    LNNTG    C18     42    -0.180000    12.0110   ; qtot -0.180
    43       HAL2    162    LNNTG    H8P     43     0.090000     1.0080   ; qtot -0.090
    44       HAL2    162    LNNTG    H8Q     44     0.090000     1.0080   ; qtot  0.000
    45       CEL1    162    LNNTG    C19     45    -0.150000    12.0110   ; qtot -0.150
    46       HEL1    162    LNNTG    H9P     46     0.150000     1.0080   ; qtot  0.000
    47       CEL1    162    LNNTG   C110     47    -0.150000    12.0110   ; qtot -0.150
    48       HEL1    162    LNNTG   H10P     48     0.150000     1.0080   ; qtot  0.000
    49       CTL2    162    LNNTG   C111     49    -0.180000    12.0110   ; qtot -0.180
    50       HAL2    162    LNNTG   H11P     50     0.090000     1.0080   ; qtot -0.090
    51       HAL2    162    LNNTG   H11Q     51     0.090000     1.0080   ; qtot  0.000
    52       CEL1    162    LNNTG   C112     52    -0.150000    12.0110   ; qtot -0.150
    53       HEL1    162    LNNTG   H12P     53     0.150000     1.0080   ; qtot  0.000
    54       CEL1    162    LNNTG   C113     54    -0.150000    12.0110   ; qtot -0.150
    55       HEL1    162    LNNTG   H13P     55     0.150000     1.0080   ; qtot  0.000
    56       CTL2    162    LNNTG   C114     56    -0.180000    12.0110   ; qtot -0.180
    57       HAL2    162    LNNTG   H14P     57     0.090000     1.0080   ; qtot -0.090
    58       HAL2    162    LNNTG   H14Q     58     0.090000     1.0080   ; qtot  0.000
    59       CTL2    162    LNNTG   C115     59    -0.180000    12.0110   ; qtot -0.180
    60       HAL2    162    LNNTG   H15P     60     0.090000     1.0080   ; qtot -0.090
    61       HAL2    162    LNNTG   H15Q     61     0.090000     1.0080   ; qtot  0.000
    62       CTL2    162    LNNTG   C116     62    -0.180000    12.0110   ; qtot -0.180
    63       HAL2    162    LNNTG   H16P     63     0.090000     1.0080   ; qtot -0.090
    64       HAL2    162    LNNTG   H16Q     64     0.090000     1.0080   ; qtot  0.000
    65       CTL2    162    LNNTG   C117     65    -0.180000    12.0110   ; qtot -0.180
    66       HAL2    162    LNNTG   H17P     66     0.090000     1.0080   ; qtot -0.090
    67       HAL2    162    LNNTG   H17Q     67     0.090000     1.0080   ; qtot  0.000
    68       CTL3    162    LNNTG   C118     68    -0.270000    12.0110   ; qtot -0.270
    69       HAL3    162    LNNTG   H18P     69     0.090000     1.0080   ; qtot -0.180
    70       HAL3    162    LNNTG   H18Q     70     0.090000     1.0080   ; qtot -0.090
    71       HAL3    162    LNNTG   H18O     71     0.090000     1.0080   ; qtot -0.000
    72       CTL2    162    LNNTG    C23     72    -0.180000    12.0110   ; qtot -0.180
    73       HAL2    162    LNNTG    H3R     73     0.090000     1.0080   ; qtot -0.090
    74       HAL2    162    LNNTG    H3S     74     0.090000     1.0080   ; qtot -0.000
    75       CTL2    162    LNNTG    C24     75    -0.180000    12.0110   ; qtot -0.180
    76       HAL2    162    LNNTG    H4R     76     0.090000     1.0080   ; qtot -0.090
    77       HAL2    162    LNNTG    H4S     77     0.090000     1.0080   ; qtot -0.000
    78       CTL2    162    LNNTG    C25     78    -0.180000    12.0110   ; qtot -0.180
    79       HAL2    162    LNNTG    H5R     79     0.090000     1.0080   ; qtot -0.090
    80       HAL2    162    LNNTG    H5S     80     0.090000     1.0080   ; qtot -0.000
    81       CTL2    162    LNNTG    C26     81    -0.180000    12.0110   ; qtot -0.180
    82       HAL2    162    LNNTG    H6R     82     0.090000     1.0080   ; qtot -0.090
    83       HAL2    162    LNNTG    H6S     83     0.090000     1.0080   ; qtot -0.000
    84       CTL2    162    LNNTG    C27     84    -0.180000    12.0110   ; qtot -0.180
    85       HAL2    162    LNNTG    H7R     85     0.090000     1.0080   ; qtot -0.090
    86       HAL2    162    LNNTG    H7S     86     0.090000     1.0080   ; qtot -0.000
    87       CTL2    162    LNNTG    C28     87    -0.180000    12.0110   ; qtot -0.180
    88       HAL2    162    LNNTG    H8R     88     0.090000     1.0080   ; qtot -0.090
    89       HAL2    162    LNNTG    H8S     89     0.090000     1.0080   ; qtot -0.000
    90       CEL1    162    LNNTG    C29     90    -0.150000    12.0110   ; qtot -0.150
    91       HEL1    162    LNNTG    H9R     91     0.150000     1.0080   ; qtot -0.000
    92       CEL1    162    LNNTG   C210     92    -0.150000    12.0110   ; qtot -0.150
    93       HEL1    162    LNNTG   H10R     93     0.150000     1.0080   ; qtot -0.000
    94       CTL2    162    LNNTG   C211     94    -0.180000    12.0110   ; qtot -0.180
    95       HAL2    162    LNNTG   H11R     95     0.090000     1.0080   ; qtot -0.090
    96       HAL2    162    LNNTG   H11S     96     0.090000     1.0080   ; qtot -0.000
    97       CEL1    162    LNNTG   C212     97    -0.150000    12.0110   ; qtot -0.150
    98       HEL1    162    LNNTG   H12R     98     0.150000     1.0080   ; qtot -0.000
    99       CEL1    162    LNNTG   C213     99    -0.150000    12.0110   ; qtot -0.150
   100       HEL1    162    LNNTG   H13R    100     0.150000     1.0080   ; qtot -0.000
   101       CTL2    162    LNNTG   C214    101    -0.180000    12.0110   ; qtot -0.180
   102       HAL2    162    LNNTG   H14R    102     0.090000     1.0080   ; qtot -0.090
   103       HAL2    162    LNNTG   H14S    103     0.090000     1.0080   ; qtot -0.000
   104       CEL1    162    LNNTG   C215    104    -0.150000    12.0110   ; qtot -0.150
   105       HEL1    162    LNNTG   H15R    105     0.150000     1.0080   ; qtot -0.000
   106       CEL1    162    LNNTG   C216    106    -0.150000    12.0110   ; qtot -0.150
   107       HEL1    162    LNNTG   H16R    107     0.150000     1.0080   ; qtot -0.000
   108       CTL2    162    LNNTG   C217    108    -0.180000    12.0110   ; qtot -0.180
   109       HAL2    162    LNNTG   H17R    109     0.090000     1.0080   ; qtot -0.090
   110       HAL2    162    LNNTG   H17S    110     0.090000     1.0080   ; qtot -0.000
   111       CTL3    162    LNNTG   C218    111    -0.270000    12.0110   ; qtot -0.270
   112       HAL3    162    LNNTG   H18R    112     0.090000     1.0080   ; qtot -0.180
   113       HAL3    162    LNNTG   H18S    113     0.090000     1.0080   ; qtot -0.090
   114       HAL3    162    LNNTG   H18T    114     0.090000     1.0080   ; qtot -0.000
   115       CTL2    162    LNNTG    C33    115    -0.180000    12.0110   ; qtot -0.180
   116       HAL2    162    LNNTG    H3X    116     0.090000     1.0080   ; qtot -0.090
   117       HAL2    162    LNNTG    H3Y    117     0.090000     1.0080   ; qtot -0.000
   118       CTL2    162    LNNTG    C34    118    -0.180000    12.0110   ; qtot -0.180
   119       HAL2    162    LNNTG    H4X    119     0.090000     1.0080   ; qtot -0.090
   120       HAL2    162    LNNTG    H4Y    120     0.090000     1.0080   ; qtot -0.000
   121       CTL2    162    LNNTG    C35    121    -0.180000    12.0110   ; qtot -0.180
   122       HAL2    162    LNNTG    H5X    122     0.090000     1.0080   ; qtot -0.090
   123       HAL2    162    LNNTG    H5Y    123     0.090000     1.0080   ; qtot -0.000
   124       CTL2    162    LNNTG    C36    124    -0.180000    12.0110   ; qtot -0.180
   125       HAL2    162    LNNTG    H6X    125     0.090000     1.0080   ; qtot -0.090
   126       HAL2    162    LNNTG    H6Y    126     0.090000     1.0080   ; qtot -0.000
   127       CTL2    162    LNNTG    C37    127    -0.180000    12.0110   ; qtot -0.180
   128       HAL2    162    LNNTG    H7X    128     0.090000     1.0080   ; qtot -0.090
   129       HAL2    162    LNNTG    H7Y    129     0.090000     1.0080   ; qtot -0.000
   130       CTL2    162    LNNTG    C38    130    -0.180000    12.0110   ; qtot -0.180
   131       HAL2    162    LNNTG    H8X    131     0.090000     1.0080   ; qtot -0.090
   132       HAL2    162    LNNTG    H8Y    132     0.090000     1.0080   ; qtot -0.000
   133       CEL1    162    LNNTG    C39    133    -0.150000    12.0110   ; qtot -0.150
   134       HEL1    162    LNNTG    H9X    134     0.150000     1.0080   ; qtot -0.000
   135       CEL1    162    LNNTG   C310    135    -0.150000    12.0110   ; qtot -0.150
   136       HEL1    162    LNNTG   H10X    136     0.150000     1.0080   ; qtot -0.000
   137       CTL2    162    LNNTG   C311    137    -0.180000    12.0110   ; qtot -0.180
   138       HAL2    162    LNNTG   H11X    138     0.090000     1.0080   ; qtot -0.090
   139       HAL2    162    LNNTG   H11Y    139     0.090000     1.0080   ; qtot -0.000
   140       CEL1    162    LNNTG   C312    140    -0.150000    12.0110   ; qtot -0.150
   141       HEL1    162    LNNTG   H12X    141     0.150000     1.0080   ; qtot -0.000
   142       CEL1    162    LNNTG   C313    142    -0.150000    12.0110   ; qtot -0.150
   143       HEL1    162    LNNTG   H13X    143     0.150000     1.0080   ; qtot -0.000
   144       CTL2    162    LNNTG   C314    144    -0.180000    12.0110   ; qtot -0.180
   145       HAL2    162    LNNTG   H14X    145     0.090000     1.0080   ; qtot -0.090
   146       HAL2    162    LNNTG   H14Y    146     0.090000     1.0080   ; qtot -0.000
   147       CEL1    162    LNNTG   C315    147    -0.150000    12.0110   ; qtot -0.150
   148       HEL1    162    LNNTG   H15X    148     0.150000     1.0080   ; qtot -0.000
   149       CEL1    162    LNNTG   C316    149    -0.150000    12.0110   ; qtot -0.150
   150       HEL1    162    LNNTG   H16X    150     0.150000     1.0080   ; qtot -0.000
   151       CTL2    162    LNNTG   C317    151    -0.180000    12.0110   ; qtot -0.180
   152       HAL2    162    LNNTG   H17X    152     0.090000     1.0080   ; qtot -0.090
   153       HAL2    162    LNNTG   H17Y    153     0.090000     1.0080   ; qtot -0.000
   154       CTL3    162    LNNTG   C318    154    -0.270000    12.0110   ; qtot -0.270
   155       HAL3    162    LNNTG   H18X    155     0.090000     1.0080   ; qtot -0.180
   156       HAL3    162    LNNTG   H18Y    156     0.090000     1.0080   ; qtot -0.090
   157       HAL3    162    LNNTG   H18Z    157     0.090000     1.0080   ; qtot -0.000

[ bonds ]
; ai	aj	funct	b0	Kb
    1     2     1
    1     3     1
    1     4     1
    1    10     1
    4     6     1
    6     5     1
    6     7     1
    7     8     1
    7     9     1
    7    27     1
   10    11     1
   10    12     1
   10    18     1
   12    13     1
   13    14     1
   13    15     1
   15    16     1
   15    17     1
   15    72     1
   18    19     1
   18    20     1
   18    21     1
   21    22     1
   22    23     1
   22    24     1
   24    25     1
   24    26     1
   24   115     1
   27    28     1
   27    29     1
   27    30     1
   30    31     1
   30    32     1
   30    33     1
   33    34     1
   33    35     1
   33    36     1
   36    37     1
   36    38     1
   36    39     1
   39    40     1
   39    41     1
   39    42     1
   42    43     1
   42    44     1
   42    45     1
   45    46     1
   45    47     1
   47    48     1
   47    49     1
   49    50     1
   49    51     1
   49    52     1
   52    53     1
   52    54     1
   54    55     1
   54    56     1
   56    57     1
   56    58     1
   56    59     1
   59    60     1
   59    61     1
   59    62     1
   62    63     1
   62    64     1
   62    65     1
   65    66     1
   65    67     1
   65    68     1
   68    69     1
   68    70     1
   68    71     1
   72    73     1
   72    74     1
   72    75     1
   75    76     1
   75    77     1
   75    78     1
   78    79     1
   78    80     1
   78    81     1
   81    82     1
   81    83     1
   81    84     1
   84    85     1
   84    86     1
   84    87     1
   87    88     1
   87    89     1
   87    90     1
   90    91     1
   90    92     1
   92    93     1
   92    94     1
   94    95     1
   94    96     1
   94    97     1
   97    98     1
   97    99     1
   99   100     1
   99   101     1
  101   102     1
  101   103     1
  101   104     1
  104   105     1
  104   106     1
  106   107     1
  106   108     1
  108   109     1
  108   110     1
  108   111     1
  111   112     1
  111   113     1
  111   114     1
  115   116     1
  115   117     1
  115   118     1
  118   119     1
  118   120     1
  118   121     1
  121   122     1
  121   123     1
  121   124     1
  124   125     1
  124   126     1
  124   127     1
  127   128     1
  127   129     1
  127   130     1
  130   131     1
  130   132     1
  130   133     1
  133   134     1
  133   135     1
  135   136     1
  135   137     1
  137   138     1
  137   139     1
  137   140     1
  140   141     1
  140   142     1
  142   143     1
  142   144     1
  144   145     1
  144   146     1
  144   147     1
  147   148     1
  147   149     1
  149   150     1
  149   151     1
  151   152     1
  151   153     1
  151   154     1
  154   155     1
  154   156     1
  154   157     1

[ pairs ]
; ai	aj	funct	c6	c12 or
; ai	aj	funct	fudgeQQ	q1	q2	c6	c12
    1     5     1
    1     7     1
    1    13     1
    1    19     1
    1    20     1
    1    21     1
    2     6     1
    2    11     1
    2    12     1
    2    18     1
    3     6     1
    3    11     1
    3    12     1
    3    18     1
    4     8     1
    4     9     1
    4    11     1
    4    12     1
    4    18     1
    4    27     1
    5     8     1
    5     9     1
    5    27     1
    6    10     1
    6    28     1
    6    29     1
    6    30     1
    7    31     1
    7    32     1
    7    33     1
    8    28     1
    8    29     1
    8    30     1
    9    28     1
    9    29     1
    9    30     1
   10    14     1
   10    15     1
   10    22     1
   11    13     1
   11    19     1
   11    20     1
   11    21     1
   12    16     1
   12    17     1
   12    19     1
   12    20     1
   12    21     1
   12    72     1
   13    18     1
   13    73     1
   13    74     1
   13    75     1
   14    16     1
   14    17     1
   14    72     1
   15    76     1
   15    77     1
   15    78     1
   16    73     1
   16    74     1
   16    75     1
   17    73     1
   17    74     1
   17    75     1
   18    23     1
   18    24     1
   19    22     1
   20    22     1
   21    25     1
   21    26     1
   21   115     1
   22   116     1
   22   117     1
   22   118     1
   23    25     1
   23    26     1
   23   115     1
   24   119     1
   24   120     1
   24   121     1
   25   116     1
   25   117     1
   25   118     1
   26   116     1
   26   117     1
   26   118     1
   27    34     1
   27    35     1
   27    36     1
   28    31     1
   28    32     1
   28    33     1
   29    31     1
   29    32     1
   29    33     1
   30    37     1
   30    38     1
   30    39     1
   31    34     1
   31    35     1
   31    36     1
   32    34     1
   32    35     1
   32    36     1
   33    40     1
   33    41     1
   33    42     1
   34    37     1
   34    38     1
   34    39     1
   35    37     1
   35    38     1
   35    39     1
   36    43     1
   36    44     1
   36    45     1
   37    40     1
   37    41     1
   37    42     1
   38    40     1
   38    41     1
   38    42     1
   39    46     1
   39    47     1
   40    43     1
   40    44     1
   40    45     1
   41    43     1
   41    44     1
   41    45     1
   42    48     1
   42    49     1
   43    46     1
   43    47     1
   44    46     1
   44    47     1
   45    50     1
   45    51     1
   45    52     1
   46    48     1
   46    49     1
   47    53     1
   47    54     1
   48    50     1
   48    51     1
   48    52     1
   49    55     1
   49    56     1
   50    53     1
   50    54     1
   51    53     1
   51    54     1
   52    57     1
   52    58     1
   52    59     1
   53    55     1
   53    56     1
   54    60     1
   54    61     1
   54    62     1
   55    57     1
   55    58     1
   55    59     1
   56    63     1
   56    64     1
   56    65     1
   57    60     1
   57    61     1
   57    62     1
   58    60     1
   58    61     1
   58    62     1
   59    66     1
   59    67     1
   59    68     1
   60    63     1
   60    64     1
   60    65     1
   61    63     1
   61    64     1
   61    65     1
   62    69     1
   62    70     1
   62    71     1
   63    66     1
   63    67     1
   63    68     1
   64    66     1
   64    67     1
   64    68     1
   66    69     1
   66    70     1
   66    71     1
   67    69     1
   67    70     1
   67    71     1
   72    79     1
   72    80     1
   72    81     1
   73    76     1
   73    77     1
   73    78     1
   74    76     1
   74    77     1
   74    78     1
   75    82     1
   75    83     1
   75    84     1
   76    79     1
   76    80     1
   76    81     1
   77    79     1
   77    80     1
   77    81     1
   78    85     1
   78    86     1
   78    87     1
   79    82     1
   79    83     1
   79    84     1
   80    82     1
   80    83     1
   80    84     1
   81    88     1
   81    89     1
   81    90     1
   82    85     1
   82    86     1
   82    87     1
   83    85     1
   83    86     1
   83    87     1
   84    91     1
   84    92     1
   85    88     1
   85    89     1
   85    90     1
   86    88     1
   86    89     1
   86    90     1
   87    93     1
   87    94     1
   88    91     1
   88    92     1
   89    91     1
   89    92     1
   90    95     1
   90    96     1
   90    97     1
   91    93     1
   91    94     1
   92    98     1
   92    99     1
   93    95     1
   93    96     1
   93    97     1
   94   100     1
   94   101     1
   95    98     1
   95    99     1
   96    98     1
   96    99     1
   97   102     1
   97   103     1
   97   104     1
   98   100     1
   98   101     1
   99   105     1
   99   106     1
  100   102     1
  100   103     1
  100   104     1
  101   107     1
  101   108     1
  102   105     1
  102   106     1
  103   105     1
  103   106     1
  104   109     1
  104   110     1
  104   111     1
  105   107     1
  105   108     1
  106   112     1
  106   113     1
  106   114     1
  107   109     1
  107   110     1
  107   111     1
  109   112     1
  109   113     1
  109   114     1
  110   112     1
  110   113     1
  110   114     1
  115   122     1
  115   123     1
  115   124     1
  116   119     1
  116   120     1
  116   121     1
  117   119     1
  117   120     1
  117   121     1
  118   125     1
  118   126     1
  118   127     1
  119   122     1
  119   123     1
  119   124     1
  120   122     1
  120   123     1
  120   124     1
  121   128     1
  121   129     1
  121   130     1
  122   125     1
  122   126     1
  122   127     1
  123   125     1
  123   126     1
  123   127     1
  124   131     1
  124   132     1
  124   133     1
  125   128     1
  125   129     1
  125   130     1
  126   128     1
  126   129     1
  126   130     1
  127   134     1
  127   135     1
  128   131     1
  128   132     1
  128   133     1
  129   131     1
  129   132     1
  129   133     1
  130   136     1
  130   137     1
  131   134     1
  131   135     1
  132   134     1
  132   135     1
  133   138     1
  133   139     1
  133   140     1
  134   136     1
  134   137     1
  135   141     1
  135   142     1
  136   138     1
  136   139     1
  136   140     1
  137   143     1
  137   144     1
  138   141     1
  138   142     1
  139   141     1
  139   142     1
  140   145     1
  140   146     1
  140   147     1
  141   143     1
  141   144     1
  142   148     1
  142   149     1
  143   145     1
  143   146     1
  143   147     1
  144   150     1
  144   151     1
  145   148     1
  145   149     1
  146   148     1
  146   149     1
  147   152     1
  147   153     1
  147   154     1
  148   150     1
  148   151     1
  149   155     1
  149   156     1
  149   157     1
  150   152     1
  150   153     1
  150   154     1
  152   155     1
  152   156     1
  152   157     1
  153   155     1
  153   156     1
  153   157     1

[ angles ] 
; ai	aj	ak	funct	th0	cth	S0	Kub
    2     1     3     5
    2     1     4     5
    2     1    10     5
    3     1     4     5
    3     1    10     5
    4     1    10     5
    1     4     6     5
    4     6     5     5
    4     6     7     5
    5     6     7     5
    6     7     8     5
    6     7     9     5
    6     7    27     5
    8     7     9     5
    8     7    27     5
    9     7    27     5
    1    10    11     5
    1    10    12     5
    1    10    18     5
   11    10    12     5
   11    10    18     5
   12    10    18     5
   10    12    13     5
   12    13    14     5
   12    13    15     5
   14    13    15     5
   13    15    16     5
   13    15    17     5
   13    15    72     5
   16    15    17     5
   16    15    72     5
   17    15    72     5
   10    18    19     5
   10    18    20     5
   10    18    21     5
   19    18    20     5
   19    18    21     5
   20    18    21     5
   18    21    22     5
   21    22    23     5
   21    22    24     5
   23    22    24     5
   22    24    25     5
   22    24    26     5
   22    24   115     5
   25    24    26     5
   25    24   115     5
   26    24   115     5
    7    27    28     5
    7    27    29     5
    7    27    30     5
   28    27    29     5
   28    27    30     5
   29    27    30     5
   27    30    31     5
   27    30    32     5
   27    30    33     5
   31    30    32     5
   31    30    33     5
   32    30    33     5
   30    33    34     5
   30    33    35     5
   30    33    36     5
   34    33    35     5
   34    33    36     5
   35    33    36     5
   33    36    37     5
   33    36    38     5
   33    36    39     5
   37    36    38     5
   37    36    39     5
   38    36    39     5
   36    39    40     5
   36    39    41     5
   36    39    42     5
   40    39    41     5
   40    39    42     5
   41    39    42     5
   39    42    43     5
   39    42    44     5
   39    42    45     5
   43    42    44     5
   43    42    45     5
   44    42    45     5
   42    45    46     5
   42    45    47     5
   46    45    47     5
   45    47    48     5
   45    47    49     5
   48    47    49     5
   47    49    50     5
   47    49    51     5
   47    49    52     5
   50    49    51     5
   50    49    52     5
   51    49    52     5
   49    52    53     5
   49    52    54     5
   53    52    54     5
   52    54    55     5
   52    54    56     5
   55    54    56     5
   54    56    57     5
   54    56    58     5
   54    56    59     5
   57    56    58     5
   57    56    59     5
   58    56    59     5
   56    59    60     5
   56    59    61     5
   56    59    62     5
   60    59    61     5
   60    59    62     5
   61    59    62     5
   59    62    63     5
   59    62    64     5
   59    62    65     5
   63    62    64     5
   63    62    65     5
   64    62    65     5
   62    65    66     5
   62    65    67     5
   62    65    68     5
   66    65    67     5
   66    65    68     5
   67    65    68     5
   65    68    69     5
   65    68    70     5
   65    68    71     5
   69    68    70     5
   69    68    71     5
   70    68    71     5
   15    72    73     5
   15    72    74     5
   15    72    75     5
   73    72    74     5
   73    72    75     5
   74    72    75     5
   72    75    76     5
   72    75    77     5
   72    75    78     5
   76    75    77     5
   76    75    78     5
   77    75    78     5
   75    78    79     5
   75    78    80     5
   75    78    81     5
   79    78    80     5
   79    78    81     5
   80    78    81     5
   78    81    82     5
   78    81    83     5
   78    81    84     5
   82    81    83     5
   82    81    84     5
   83    81    84     5
   81    84    85     5
   81    84    86     5
   81    84    87     5
   85    84    86     5
   85    84    87     5
   86    84    87     5
   84    87    88     5
   84    87    89     5
   84    87    90     5
   88    87    89     5
   88    87    90     5
   89    87    90     5
   87    90    91     5
   87    90    92     5
   91    90    92     5
   90    92    93     5
   90    92    94     5
   93    92    94     5
   92    94    95     5
   92    94    96     5
   92    94    97     5
   95    94    96     5
   95    94    97     5
   96    94    97     5
   94    97    98     5
   94    97    99     5
   98    97    99     5
   97    99   100     5
   97    99   101     5
  100    99   101     5
   99   101   102     5
   99   101   103     5
   99   101   104     5
  102   101   103     5
  102   101   104     5
  103   101   104     5
  101   104   105     5
  101   104   106     5
  105   104   106     5
  104   106   107     5
  104   106   108     5
  107   106   108     5
  106   108   109     5
  106   108   110     5
  106   108   111     5
  109   108   110     5
  109   108   111     5
  110   108   111     5
  108   111   112     5
  108   111   113     5
  108   111   114     5
  112   111   113     5
  112   111   114     5
  113   111   114     5
   24   115   116     5
   24   115   117     5
   24   115   118     5
  116   115   117     5
  116   115   118     5
  117   115   118     5
  115   118   119     5
  115   118   120     5
  115   118   121     5
  119   118   120     5
  119   118   121     5
  120   118   121     5
  118   121   122     5
  118   121   123     5
  118   121   124     5
  122   121   123     5
  122   121   124     5
  123   121   124     5
  121   124   125     5
  121   124   126     5
  121   124   127     5
  125   124   126     5
  125   124   127     5
  126   124   127     5
  124   127   128     5
  124   127   129     5
  124   127   130     5
  128   127   129     5
  128   127   130     5
  129   127   130     5
  127   130   131     5
  127   130   132     5
  127   130   133     5
  131   130   132     5
  131   130   133     5
  132   130   133     5
  130   133   134     5
  130   133   135     5
  134   133   135     5
  133   135   136     5
  133   135   137     5
  136   135   137     5
  135   137   138     5
  135   137   139     5
  135   137   140     5
  138   137   139     5
  138   137   140     5
  139   137   140     5
  137   140   141     5
  137   140   142     5
  141   140   142     5
  140   142   143     5
  140   142   144     5
  143   142   144     5
  142   144   145     5
  142   144   146     5
  142   144   147     5
  145   144   146     5
  145   144   147     5
  146   144   147     5
  144   147   148     5
  144   147   149     5
  148   147   149     5
  147   149   150     5
  147   149   151     5
  150   149   151     5
  149   151   152     5
  149   151   153     5
  149   151   154     5
  152   151   153     5
  152   151   154     5
  153   151   154     5
  151   154   155     5
  151   154   156     5
  151   154   157     5
  155   154   156     5
  155   154   157     5
  156   154   157     5

[ dihedrals ]
; ai	aj	ak	al	funct	phi0	cp	mult
    2     1     4     6     9
    3     1     4     6     9
    2     1    10    11     9
    2     1    10    12     9
    2     1    10    18     9
    3     1    10    11     9
    3     1    10    12     9
    3     1    10    18     9
    4     1    10    11     9
    4     1    10    12     9
    4     1    10    18     9
    6     4     1    10     9
    1     4     6     5     9
    1     4     6     7     9
    4     6     7     8     9
    4     6     7     9     9
    4     6     7    27     9
    5     6     7     8     9
    5     6     7     9     9
    5     6     7    27     9
    6     7    27    28     9
    6     7    27    29     9
    6     7    27    30     9
    8     7    27    28     9
    8     7    27    29     9
    8     7    27    30     9
    9     7    27    28     9
    9     7    27    29     9
    9     7    27    30     9
    1    10    12    13     9
   11    10    12    13     9
    1    10    18    19     9
    1    10    18    20     9
    1    10    18    21     9
   11    10    18    19     9
   11    10    18    20     9
   11    10    18    21     9
   12    10    18    19     9
   12    10    18    20     9
   12    10    18    21     9
   13    12    10    18     9
   10    12    13    14     9
   10    12    13    15     9
   12    13    15    16     9
   12    13    15    17     9
   12    13    15    72     9
   14    13    15    16     9
   14    13    15    17     9
   14    13    15    72     9
   13    15    72    73     9
   13    15    72    74     9
   13    15    72    75     9
   16    15    72    73     9
   16    15    72    74     9
   16    15    72    75     9
   17    15    72    73     9
   17    15    72    74     9
   17    15    72    75     9
   10    18    21    22     9
   19    18    21    22     9
   20    18    21    22     9
   18    21    22    23     9
   18    21    22    24     9
   21    22    24    25     9
   21    22    24    26     9
   21    22    24   115     9
   23    22    24    25     9
   23    22    24    26     9
   23    22    24   115     9
   22    24   115   116     9
   22    24   115   117     9
   22    24   115   118     9
   25    24   115   116     9
   25    24   115   117     9
   25    24   115   118     9
   26    24   115   116     9
   26    24   115   117     9
   26    24   115   118     9
    7    27    30    31     9
    7    27    30    32     9
    7    27    30    33     9
   28    27    30    31     9
   28    27    30    32     9
   28    27    30    33     9
   29    27    30    31     9
   29    27    30    32     9
   29    27    30    33     9
   27    30    33    34     9
   27    30    33    35     9
   27    30    33    36     9
   31    30    33    34     9
   31    30    33    35     9
   31    30    33    36     9
   32    30    33    34     9
   32    30    33    35     9
   32    30    33    36     9
   30    33    36    37     9
   30    33    36    38     9
   30    33    36    39     9
   34    33    36    37     9
   34    33    36    38     9
   34    33    36    39     9
   35    33    36    37     9
   35    33    36    38     9
   35    33    36    39     9
   33    36    39    40     9
   33    36    39    41     9
   33    36    39    42     9
   37    36    39    40     9
   37    36    39    41     9
   37    36    39    42     9
   38    36    39    40     9
   38    36    39    41     9
   38    36    39    42     9
   36    39    42    43     9
   36    39    42    44     9
   36    39    42    45     9
   40    39    42    43     9
   40    39    42    44     9
   40    39    42    45     9
   41    39    42    43     9
   41    39    42    44     9
   41    39    42    45     9
   39    42    45    46     9
   39    42    45    47     9
   43    42    45    46     9
   43    42    45    47     9
   44    42    45    46     9
   44    42    45    47     9
   42    45    47    48     9
   42    45    47    49     9
   46    45    47    48     9
   46    45    47    49     9
   45    47    49    50     9
   45    47    49    51     9
   45    47    49    52     9
   48    47    49    50     9
   48    47    49    51     9
   48    47    49    52     9
   47    49    52    53     9
   47    49    52    54     9
   50    49    52    53     9
   50    49    52    54     9
   51    49    52    53     9
   51    49    52    54     9
   49    52    54    55     9
   49    52    54    56     9
   53    52    54    55     9
   53    52    54    56     9
   52    54    56    57     9
   52    54    56    58     9
   52    54    56    59     9
   55    54    56    57     9
   55    54    56    58     9
   55    54    56    59     9
   54    56    59    60     9
   54    56    59    61     9
   54    56    59    62     9
   57    56    59    60     9
   57    56    59    61     9
   57    56    59    62     9
   58    56    59    60     9
   58    56    59    61     9
   58    56    59    62     9
   56    59    62    63     9
   56    59    62    64     9
   56    59    62    65     9
   60    59    62    63     9
   60    59    62    64     9
   60    59    62    65     9
   61    59    62    63     9
   61    59    62    64     9
   61    59    62    65     9
   59    62    65    66     9
   59    62    65    67     9
   59    62    65    68     9
   63    62    65    66     9
   63    62    65    67     9
   63    62    65    68     9
   64    62    65    66     9
   64    62    65    67     9
   64    62    65    68     9
   62    65    68    69     9
   62    65    68    70     9
   62    65    68    71     9
   66    65    68    69     9
   66    65    68    70     9
   66    65    68    71     9
   67    65    68    69     9
   67    65    68    70     9
   67    65    68    71     9
   15    72    75    76     9
   15    72    75    77     9
   15    72    75    78     9
   73    72    75    76     9
   73    72    75    77     9
   73    72    75    78     9
   74    72    75    76     9
   74    72    75    77     9
   74    72    75    78     9
   72    75    78    79     9
   72    75    78    80     9
   72    75    78    81     9
   76    75    78    79     9
   76    75    78    80     9
   76    75    78    81     9
   77    75    78    79     9
   77    75    78    80     9
   77    75    78    81     9
   75    78    81    82     9
   75    78    81    83     9
   75    78    81    84     9
   79    78    81    82     9
   79    78    81    83     9
   79    78    81    84     9
   80    78    81    82     9
   80    78    81    83     9
   80    78    81    84     9
   78    81    84    85     9
   78    81    84    86     9
   78    81    84    87     9
   82    81    84    85     9
   82    81    84    86     9
   82    81    84    87     9
   83    81    84    85     9
   83    81    84    86     9
   83    81    84    87     9
   81    84    87    88     9
   81    84    87    89     9
   81    84    87    90     9
   85    84    87    88     9
   85    84    87    89     9
   85    84    87    90     9
   86    84    87    88     9
   86    84    87    89     9
   86    84    87    90     9
   84    87    90    91     9
   84    87    90    92     9
   88    87    90    91     9
   88    87    90    92     9
   89    87    90    91     9
   89    87    90    92     9
   87    90    92    93     9
   87    90    92    94     9
   91    90    92    93     9
   91    90    92    94     9
   90    92    94    95     9
   90    92    94    96     9
   90    92    94    97     9
   93    92    94    95     9
   93    92    94    96     9
   93    92    94    97     9
   92    94    97    98     9
   92    94    97    99     9
   95    94    97    98     9
   95    94    97    99     9
   96    94    97    98     9
   96    94    97    99     9
   94    97    99   100     9
   94    97    99   101     9
   98    97    99   100     9
   98    97    99   101     9
   97    99   101   102     9
   97    99   101   103     9
   97    99   101   104     9
  100    99   101   102     9
  100    99   101   103     9
  100    99   101   104     9
   99   101   104   105     9
   99   101   104   106     9
  102   101   104   105     9
  102   101   104   106     9
  103   101   104   105     9
  103   101   104   106     9
  101   104   106   107     9
  101   104   106   108     9
  105   104   106   107     9
  105   104   106   108     9
  104   106   108   109     9
  104   106   108   110     9
  104   106   108   111     9
  107   106   108   109     9
  107   106   108   110     9
  107   106   108   111     9
  106   108   111   112     9
  106   108   111   113     9
  106   108   111   114     9
  109   108   111   112     9
  109   108   111   113     9
  109   108   111   114     9
  110   108   111   112     9
  110   108   111   113     9
  110   108   111   114     9
   24   115   118   119     9
   24   115   118   120     9
   24   115   118   121     9
  116   115   118   119     9
  116   115   118   120     9
  116   115   118   121     9
  117   115   118   119     9
  117   115   118   120     9
  117   115   118   121     9
  115   118   121   122     9
  115   118   121   123     9
  115   118   121   124     9
  119   118   121   122     9
  119   118   121   123     9
  119   118   121   124     9
  120   118   121   122     9
  120   118   121   123     9
  120   118   121   124     9
  118   121   124   125     9
  118   121   124   126     9
  118   121   124   127     9
  122   121   124   125     9
  122   121   124   126     9
  122   121   124   127     9
  123   121   124   125     9
  123   121   124   126     9
  123   121   124   127     9
  121   124   127   128     9
  121   124   127   129     9
  121   124   127   130     9
  125   124   127   128     9
  125   124   127   129     9
  125   124   127   130     9
  126   124   127   128     9
  126   124   127   129     9
  126   124   127   130     9
  124   127   130   131     9
  124   127   130   132     9
  124   127   130   133     9
  128   127   130   131     9
  128   127   130   132     9
  128   127   130   133     9
  129   127   130   131     9
  129   127   130   132     9
  129   127   130   133     9
  127   130   133   134     9
  127   130   133   135     9
  131   130   133   134     9
  131   130   133   135     9
  132   130   133   134     9
  132   130   133   135     9
  130   133   135   136     9
  130   133   135   137     9
  134   133   135   136     9
  134   133   135   137     9
  133   135   137   138     9
  133   135   137   139     9
  133   135   137   140     9
  136   135   137   138     9
  136   135   137   139     9
  136   135   137   140     9
  135   137   140   141     9
  135   137   140   142     9
  138   137   140   141     9
  138   137   140   142     9
  139   137   140   141     9
  139   137   140   142     9
  137   140   142   143     9
  137   140   142   144     9
  141   140   142   143     9
  141   140   142   144     9
  140   142   144   145     9
  140   142   144   146     9
  140   142   144   147     9
  143   142   144   145     9
  143   142   144   146     9
  143   142   144   147     9
  142   144   147   148     9
  142   144   147   149     9
  145   144   147   148     9
  145   144   147   149     9
  146   144   147   148     9
  146   144   147   149     9
  144   147   149   150     9
  144   147   149   151     9
  148   147   149   150     9
  148   147   149   151     9
  147   149   151   152     9
  147   149   151   153     9
  147   149   151   154     9
  150   149   151   152     9
  150   149   151   153     9
  150   149   151   154     9
  149   151   154   155     9
  149   151   154   156     9
  149   151   154   157     9
  152   151   154   155     9
  152   151   154   156     9
  152   151   154   157     9
  153   151   154   155     9
  153   151   154   156     9
  153   151   154   157     9

[ dihedrals ]
; ai	aj	ak	al	funct	q0	cq
    6     4     7     5     2
   13    12    15    14     2
   22    21    24    23     2

#ifdef POSRES
[ position_restraints ]
   10     1     0.0             0.0            POSRES_FC_LIPID
#endif

#ifdef DIHRES
[ dihedral_restraints ]
    1    18    10    12     1   -120.0      2.5       DIHRES_FC
   42    45    47    49     1      0.0      0.0       DIHRES_FC
   49    52    54    56     1      0.0      0.0       DIHRES_FC
   87    90    92    94     1      0.0      0.0       DIHRES_FC
   94    97    99   101     1      0.0      0.0       DIHRES_FC
  101   104   106   108     1      0.0      0.0       DIHRES_FC
  130   133   135   137     1      0.0      0.0       DIHRES_FC
  137   140   142   144     1      0.0      0.0       DIHRES_FC
  144   147   149   151     1      0.0      0.0       DIHRES_FC
#endif
