;;
;; Generated by CHARMM-GUI FF-Converter
;;
;; Correspondance:
;; jul316@lehigh.edu or wonpil@lehigh.edu
;;
;; GROMACS topology file for NNNTG
;;


[ moleculetype ]
; name	nrexcl
NNNTG	     3

[ atoms ]
; nr	type	resnr	residu	atom	cgnr	charge	mass
     1       CTL2    206    NNNTG     C1      1     0.080000    12.0110   ; qtot  0.080
     2       HAL2    206    NNNTG     HA      2     0.090000     1.0080   ; qtot  0.170
     3       HAL2    206    NNNTG     HB      3     0.090000     1.0080   ; qtot  0.260
     4        OSL    206    NNNTG    O11      4    -0.490000    15.9994   ; qtot -0.230
     5        OBL    206    NNNTG    O12      5    -0.630000    15.9994   ; qtot -0.860
     6         CL    206    NNNTG    C11      6     0.900000    12.0110   ; qtot  0.040
     7       CTL2    206    NNNTG    C12      7    -0.220000    12.0110   ; qtot -0.180
     8       HAL2    206    NNNTG    H2P      8     0.090000     1.0080   ; qtot -0.090
     9       HAL2    206    NNNTG    H2Q      9     0.090000     1.0080   ; qtot  0.000
    10       CTL1    206    NNNTG     C2     10     0.170000    12.0110   ; qtot  0.170
    11       HAL1    206    NNNTG     HS     11     0.090000     1.0080   ; qtot  0.260
    12        OSL    206    NNNTG    O21     12    -0.490000    15.9994   ; qtot -0.230
    13         CL    206    NNNTG    C21     13     0.900000    12.0110   ; qtot  0.670
    14        OBL    206    NNNTG    O22     14    -0.630000    15.9994   ; qtot  0.040
    15       CTL2    206    NNNTG    C22     15    -0.220000    12.0110   ; qtot -0.180
    16       HAL2    206    NNNTG    H2R     16     0.090000     1.0080   ; qtot -0.090
    17       HAL2    206    NNNTG    H2S     17     0.090000     1.0080   ; qtot  0.000
    18       CTL2    206    NNNTG     C3     18     0.080000    12.0110   ; qtot  0.080
    19       HAL2    206    NNNTG     HX     19     0.090000     1.0080   ; qtot  0.170
    20       HAL2    206    NNNTG     HY     20     0.090000     1.0080   ; qtot  0.260
    21        OSL    206    NNNTG    O31     21    -0.490000    15.9994   ; qtot -0.230
    22         CL    206    NNNTG    C31     22     0.900000    12.0110   ; qtot  0.670
    23        OBL    206    NNNTG    O32     23    -0.630000    15.9994   ; qtot  0.040
    24       CTL2    206    NNNTG    C32     24    -0.220000    12.0110   ; qtot -0.180
    25       HAL2    206    NNNTG    H2X     25     0.090000     1.0080   ; qtot -0.090
    26       HAL2    206    NNNTG    H2Y     26     0.090000     1.0080   ; qtot  0.000
    27       CTL2    206    NNNTG    C13     27    -0.180000    12.0110   ; qtot -0.180
    28       HAL2    206    NNNTG    H3P     28     0.090000     1.0080   ; qtot -0.090
    29       HAL2    206    NNNTG    H3Q     29     0.090000     1.0080   ; qtot  0.000
    30       CTL2    206    NNNTG    C14     30    -0.180000    12.0110   ; qtot -0.180
    31       HAL2    206    NNNTG    H4P     31     0.090000     1.0080   ; qtot -0.090
    32       HAL2    206    NNNTG    H4Q     32     0.090000     1.0080   ; qtot  0.000
    33       CTL2    206    NNNTG    C15     33    -0.180000    12.0110   ; qtot -0.180
    34       HAL2    206    NNNTG    H5P     34     0.090000     1.0080   ; qtot -0.090
    35       HAL2    206    NNNTG    H5Q     35     0.090000     1.0080   ; qtot  0.000
    36       CTL2    206    NNNTG    C16     36    -0.180000    12.0110   ; qtot -0.180
    37       HAL2    206    NNNTG    H6P     37     0.090000     1.0080   ; qtot -0.090
    38       HAL2    206    NNNTG    H6Q     38     0.090000     1.0080   ; qtot  0.000
    39       CTL2    206    NNNTG    C17     39    -0.180000    12.0110   ; qtot -0.180
    40       HAL2    206    NNNTG    H7P     40     0.090000     1.0080   ; qtot -0.090
    41       HAL2    206    NNNTG    H7Q     41     0.090000     1.0080   ; qtot  0.000
    42       CTL2    206    NNNTG    C18     42    -0.180000    12.0110   ; qtot -0.180
    43       HAL2    206    NNNTG    H8P     43     0.090000     1.0080   ; qtot -0.090
    44       HAL2    206    NNNTG    H8Q     44     0.090000     1.0080   ; qtot  0.000
    45       CEL1    206    NNNTG    C19     45    -0.150000    12.0110   ; qtot -0.150
    46       HEL1    206    NNNTG    H9P     46     0.150000     1.0080   ; qtot  0.000
    47       CEL1    206    NNNTG   C110     47    -0.150000    12.0110   ; qtot -0.150
    48       HEL1    206    NNNTG   H10P     48     0.150000     1.0080   ; qtot  0.000
    49       CTL2    206    NNNTG   C111     49    -0.180000    12.0110   ; qtot -0.180
    50       HAL2    206    NNNTG   H11P     50     0.090000     1.0080   ; qtot -0.090
    51       HAL2    206    NNNTG   H11Q     51     0.090000     1.0080   ; qtot  0.000
    52       CEL1    206    NNNTG   C112     52    -0.150000    12.0110   ; qtot -0.150
    53       HEL1    206    NNNTG   H12P     53     0.150000     1.0080   ; qtot  0.000
    54       CEL1    206    NNNTG   C113     54    -0.150000    12.0110   ; qtot -0.150
    55       HEL1    206    NNNTG   H13P     55     0.150000     1.0080   ; qtot  0.000
    56       CTL2    206    NNNTG   C114     56    -0.180000    12.0110   ; qtot -0.180
    57       HAL2    206    NNNTG   H14P     57     0.090000     1.0080   ; qtot -0.090
    58       HAL2    206    NNNTG   H14Q     58     0.090000     1.0080   ; qtot  0.000
    59       CEL1    206    NNNTG   C115     59    -0.150000    12.0110   ; qtot -0.150
    60       HEL1    206    NNNTG   H15P     60     0.150000     1.0080   ; qtot  0.000
    61       CEL1    206    NNNTG   C116     61    -0.150000    12.0110   ; qtot -0.150
    62       HEL1    206    NNNTG   H16P     62     0.150000     1.0080   ; qtot  0.000
    63       CTL2    206    NNNTG   C117     63    -0.180000    12.0110   ; qtot -0.180
    64       HAL2    206    NNNTG   H17P     64     0.090000     1.0080   ; qtot -0.090
    65       HAL2    206    NNNTG   H17Q     65     0.090000     1.0080   ; qtot  0.000
    66       CTL3    206    NNNTG   C118     66    -0.270000    12.0110   ; qtot -0.270
    67       HAL3    206    NNNTG   H18P     67     0.090000     1.0080   ; qtot -0.180
    68       HAL3    206    NNNTG   H18Q     68     0.090000     1.0080   ; qtot -0.090
    69       HAL3    206    NNNTG   H18O     69     0.090000     1.0080   ; qtot -0.000
    70       CTL2    206    NNNTG    C23     70    -0.180000    12.0110   ; qtot -0.180
    71       HAL2    206    NNNTG    H3R     71     0.090000     1.0080   ; qtot -0.090
    72       HAL2    206    NNNTG    H3S     72     0.090000     1.0080   ; qtot -0.000
    73       CTL2    206    NNNTG    C24     73    -0.180000    12.0110   ; qtot -0.180
    74       HAL2    206    NNNTG    H4R     74     0.090000     1.0080   ; qtot -0.090
    75       HAL2    206    NNNTG    H4S     75     0.090000     1.0080   ; qtot -0.000
    76       CTL2    206    NNNTG    C25     76    -0.180000    12.0110   ; qtot -0.180
    77       HAL2    206    NNNTG    H5R     77     0.090000     1.0080   ; qtot -0.090
    78       HAL2    206    NNNTG    H5S     78     0.090000     1.0080   ; qtot -0.000
    79       CTL2    206    NNNTG    C26     79    -0.180000    12.0110   ; qtot -0.180
    80       HAL2    206    NNNTG    H6R     80     0.090000     1.0080   ; qtot -0.090
    81       HAL2    206    NNNTG    H6S     81     0.090000     1.0080   ; qtot -0.000
    82       CTL2    206    NNNTG    C27     82    -0.180000    12.0110   ; qtot -0.180
    83       HAL2    206    NNNTG    H7R     83     0.090000     1.0080   ; qtot -0.090
    84       HAL2    206    NNNTG    H7S     84     0.090000     1.0080   ; qtot -0.000
    85       CTL2    206    NNNTG    C28     85    -0.180000    12.0110   ; qtot -0.180
    86       HAL2    206    NNNTG    H8R     86     0.090000     1.0080   ; qtot -0.090
    87       HAL2    206    NNNTG    H8S     87     0.090000     1.0080   ; qtot -0.000
    88       CEL1    206    NNNTG    C29     88    -0.150000    12.0110   ; qtot -0.150
    89       HEL1    206    NNNTG    H9R     89     0.150000     1.0080   ; qtot -0.000
    90       CEL1    206    NNNTG   C210     90    -0.150000    12.0110   ; qtot -0.150
    91       HEL1    206    NNNTG   H10R     91     0.150000     1.0080   ; qtot -0.000
    92       CTL2    206    NNNTG   C211     92    -0.180000    12.0110   ; qtot -0.180
    93       HAL2    206    NNNTG   H11R     93     0.090000     1.0080   ; qtot -0.090
    94       HAL2    206    NNNTG   H11S     94     0.090000     1.0080   ; qtot -0.000
    95       CEL1    206    NNNTG   C212     95    -0.150000    12.0110   ; qtot -0.150
    96       HEL1    206    NNNTG   H12R     96     0.150000     1.0080   ; qtot -0.000
    97       CEL1    206    NNNTG   C213     97    -0.150000    12.0110   ; qtot -0.150
    98       HEL1    206    NNNTG   H13R     98     0.150000     1.0080   ; qtot -0.000
    99       CTL2    206    NNNTG   C214     99    -0.180000    12.0110   ; qtot -0.180
   100       HAL2    206    NNNTG   H14R    100     0.090000     1.0080   ; qtot -0.090
   101       HAL2    206    NNNTG   H14S    101     0.090000     1.0080   ; qtot -0.000
   102       CEL1    206    NNNTG   C215    102    -0.150000    12.0110   ; qtot -0.150
   103       HEL1    206    NNNTG   H15R    103     0.150000     1.0080   ; qtot -0.000
   104       CEL1    206    NNNTG   C216    104    -0.150000    12.0110   ; qtot -0.150
   105       HEL1    206    NNNTG   H16R    105     0.150000     1.0080   ; qtot -0.000
   106       CTL2    206    NNNTG   C217    106    -0.180000    12.0110   ; qtot -0.180
   107       HAL2    206    NNNTG   H17R    107     0.090000     1.0080   ; qtot -0.090
   108       HAL2    206    NNNTG   H17S    108     0.090000     1.0080   ; qtot -0.000
   109       CTL3    206    NNNTG   C218    109    -0.270000    12.0110   ; qtot -0.270
   110       HAL3    206    NNNTG   H18R    110     0.090000     1.0080   ; qtot -0.180
   111       HAL3    206    NNNTG   H18S    111     0.090000     1.0080   ; qtot -0.090
   112       HAL3    206    NNNTG   H18T    112     0.090000     1.0080   ; qtot -0.000
   113       CTL2    206    NNNTG    C33    113    -0.180000    12.0110   ; qtot -0.180
   114       HAL2    206    NNNTG    H3X    114     0.090000     1.0080   ; qtot -0.090
   115       HAL2    206    NNNTG    H3Y    115     0.090000     1.0080   ; qtot -0.000
   116       CTL2    206    NNNTG    C34    116    -0.180000    12.0110   ; qtot -0.180
   117       HAL2    206    NNNTG    H4X    117     0.090000     1.0080   ; qtot -0.090
   118       HAL2    206    NNNTG    H4Y    118     0.090000     1.0080   ; qtot -0.000
   119       CTL2    206    NNNTG    C35    119    -0.180000    12.0110   ; qtot -0.180
   120       HAL2    206    NNNTG    H5X    120     0.090000     1.0080   ; qtot -0.090
   121       HAL2    206    NNNTG    H5Y    121     0.090000     1.0080   ; qtot -0.000
   122       CTL2    206    NNNTG    C36    122    -0.180000    12.0110   ; qtot -0.180
   123       HAL2    206    NNNTG    H6X    123     0.090000     1.0080   ; qtot -0.090
   124       HAL2    206    NNNTG    H6Y    124     0.090000     1.0080   ; qtot -0.000
   125       CTL2    206    NNNTG    C37    125    -0.180000    12.0110   ; qtot -0.180
   126       HAL2    206    NNNTG    H7X    126     0.090000     1.0080   ; qtot -0.090
   127       HAL2    206    NNNTG    H7Y    127     0.090000     1.0080   ; qtot -0.000
   128       CTL2    206    NNNTG    C38    128    -0.180000    12.0110   ; qtot -0.180
   129       HAL2    206    NNNTG    H8X    129     0.090000     1.0080   ; qtot -0.090
   130       HAL2    206    NNNTG    H8Y    130     0.090000     1.0080   ; qtot -0.000
   131       CEL1    206    NNNTG    C39    131    -0.150000    12.0110   ; qtot -0.150
   132       HEL1    206    NNNTG    H9X    132     0.150000     1.0080   ; qtot -0.000
   133       CEL1    206    NNNTG   C310    133    -0.150000    12.0110   ; qtot -0.150
   134       HEL1    206    NNNTG   H10X    134     0.150000     1.0080   ; qtot -0.000
   135       CTL2    206    NNNTG   C311    135    -0.180000    12.0110   ; qtot -0.180
   136       HAL2    206    NNNTG   H11X    136     0.090000     1.0080   ; qtot -0.090
   137       HAL2    206    NNNTG   H11Y    137     0.090000     1.0080   ; qtot -0.000
   138       CEL1    206    NNNTG   C312    138    -0.150000    12.0110   ; qtot -0.150
   139       HEL1    206    NNNTG   H12X    139     0.150000     1.0080   ; qtot -0.000
   140       CEL1    206    NNNTG   C313    140    -0.150000    12.0110   ; qtot -0.150
   141       HEL1    206    NNNTG   H13X    141     0.150000     1.0080   ; qtot -0.000
   142       CTL2    206    NNNTG   C314    142    -0.180000    12.0110   ; qtot -0.180
   143       HAL2    206    NNNTG   H14X    143     0.090000     1.0080   ; qtot -0.090
   144       HAL2    206    NNNTG   H14Y    144     0.090000     1.0080   ; qtot -0.000
   145       CEL1    206    NNNTG   C315    145    -0.150000    12.0110   ; qtot -0.150
   146       HEL1    206    NNNTG   H15X    146     0.150000     1.0080   ; qtot -0.000
   147       CEL1    206    NNNTG   C316    147    -0.150000    12.0110   ; qtot -0.150
   148       HEL1    206    NNNTG   H16X    148     0.150000     1.0080   ; qtot -0.000
   149       CTL2    206    NNNTG   C317    149    -0.180000    12.0110   ; qtot -0.180
   150       HAL2    206    NNNTG   H17X    150     0.090000     1.0080   ; qtot -0.090
   151       HAL2    206    NNNTG   H17Y    151     0.090000     1.0080   ; qtot -0.000
   152       CTL3    206    NNNTG   C318    152    -0.270000    12.0110   ; qtot -0.270
   153       HAL3    206    NNNTG   H18X    153     0.090000     1.0080   ; qtot -0.180
   154       HAL3    206    NNNTG   H18Y    154     0.090000     1.0080   ; qtot -0.090
   155       HAL3    206    NNNTG   H18Z    155     0.090000     1.0080   ; qtot -0.000

[ bonds ]
; ai	aj	funct	b0	Kb
    1     2     1
    1     3     1
    1     4     1
    1    10     1
    4     6     1
    6     5     1
    6     7     1
    7     8     1
    7     9     1
    7    27     1
   10    11     1
   10    12     1
   10    18     1
   12    13     1
   13    14     1
   13    15     1
   15    16     1
   15    17     1
   15    70     1
   18    19     1
   18    20     1
   18    21     1
   21    22     1
   22    23     1
   22    24     1
   24    25     1
   24    26     1
   24   113     1
   27    28     1
   27    29     1
   27    30     1
   30    31     1
   30    32     1
   30    33     1
   33    34     1
   33    35     1
   33    36     1
   36    37     1
   36    38     1
   36    39     1
   39    40     1
   39    41     1
   39    42     1
   42    43     1
   42    44     1
   42    45     1
   45    46     1
   45    47     1
   47    48     1
   47    49     1
   49    50     1
   49    51     1
   49    52     1
   52    53     1
   52    54     1
   54    55     1
   54    56     1
   56    57     1
   56    58     1
   56    59     1
   59    60     1
   59    61     1
   61    62     1
   61    63     1
   63    64     1
   63    65     1
   63    66     1
   66    67     1
   66    68     1
   66    69     1
   70    71     1
   70    72     1
   70    73     1
   73    74     1
   73    75     1
   73    76     1
   76    77     1
   76    78     1
   76    79     1
   79    80     1
   79    81     1
   79    82     1
   82    83     1
   82    84     1
   82    85     1
   85    86     1
   85    87     1
   85    88     1
   88    89     1
   88    90     1
   90    91     1
   90    92     1
   92    93     1
   92    94     1
   92    95     1
   95    96     1
   95    97     1
   97    98     1
   97    99     1
   99   100     1
   99   101     1
   99   102     1
  102   103     1
  102   104     1
  104   105     1
  104   106     1
  106   107     1
  106   108     1
  106   109     1
  109   110     1
  109   111     1
  109   112     1
  113   114     1
  113   115     1
  113   116     1
  116   117     1
  116   118     1
  116   119     1
  119   120     1
  119   121     1
  119   122     1
  122   123     1
  122   124     1
  122   125     1
  125   126     1
  125   127     1
  125   128     1
  128   129     1
  128   130     1
  128   131     1
  131   132     1
  131   133     1
  133   134     1
  133   135     1
  135   136     1
  135   137     1
  135   138     1
  138   139     1
  138   140     1
  140   141     1
  140   142     1
  142   143     1
  142   144     1
  142   145     1
  145   146     1
  145   147     1
  147   148     1
  147   149     1
  149   150     1
  149   151     1
  149   152     1
  152   153     1
  152   154     1
  152   155     1

[ pairs ]
; ai	aj	funct	c6	c12 or
; ai	aj	funct	fudgeQQ	q1	q2	c6	c12
    1     5     1
    1     7     1
    1    13     1
    1    19     1
    1    20     1
    1    21     1
    2     6     1
    2    11     1
    2    12     1
    2    18     1
    3     6     1
    3    11     1
    3    12     1
    3    18     1
    4     8     1
    4     9     1
    4    11     1
    4    12     1
    4    18     1
    4    27     1
    5     8     1
    5     9     1
    5    27     1
    6    10     1
    6    28     1
    6    29     1
    6    30     1
    7    31     1
    7    32     1
    7    33     1
    8    28     1
    8    29     1
    8    30     1
    9    28     1
    9    29     1
    9    30     1
   10    14     1
   10    15     1
   10    22     1
   11    13     1
   11    19     1
   11    20     1
   11    21     1
   12    16     1
   12    17     1
   12    19     1
   12    20     1
   12    21     1
   12    70     1
   13    18     1
   13    71     1
   13    72     1
   13    73     1
   14    16     1
   14    17     1
   14    70     1
   15    74     1
   15    75     1
   15    76     1
   16    71     1
   16    72     1
   16    73     1
   17    71     1
   17    72     1
   17    73     1
   18    23     1
   18    24     1
   19    22     1
   20    22     1
   21    25     1
   21    26     1
   21   113     1
   22   114     1
   22   115     1
   22   116     1
   23    25     1
   23    26     1
   23   113     1
   24   117     1
   24   118     1
   24   119     1
   25   114     1
   25   115     1
   25   116     1
   26   114     1
   26   115     1
   26   116     1
   27    34     1
   27    35     1
   27    36     1
   28    31     1
   28    32     1
   28    33     1
   29    31     1
   29    32     1
   29    33     1
   30    37     1
   30    38     1
   30    39     1
   31    34     1
   31    35     1
   31    36     1
   32    34     1
   32    35     1
   32    36     1
   33    40     1
   33    41     1
   33    42     1
   34    37     1
   34    38     1
   34    39     1
   35    37     1
   35    38     1
   35    39     1
   36    43     1
   36    44     1
   36    45     1
   37    40     1
   37    41     1
   37    42     1
   38    40     1
   38    41     1
   38    42     1
   39    46     1
   39    47     1
   40    43     1
   40    44     1
   40    45     1
   41    43     1
   41    44     1
   41    45     1
   42    48     1
   42    49     1
   43    46     1
   43    47     1
   44    46     1
   44    47     1
   45    50     1
   45    51     1
   45    52     1
   46    48     1
   46    49     1
   47    53     1
   47    54     1
   48    50     1
   48    51     1
   48    52     1
   49    55     1
   49    56     1
   50    53     1
   50    54     1
   51    53     1
   51    54     1
   52    57     1
   52    58     1
   52    59     1
   53    55     1
   53    56     1
   54    60     1
   54    61     1
   55    57     1
   55    58     1
   55    59     1
   56    62     1
   56    63     1
   57    60     1
   57    61     1
   58    60     1
   58    61     1
   59    64     1
   59    65     1
   59    66     1
   60    62     1
   60    63     1
   61    67     1
   61    68     1
   61    69     1
   62    64     1
   62    65     1
   62    66     1
   64    67     1
   64    68     1
   64    69     1
   65    67     1
   65    68     1
   65    69     1
   70    77     1
   70    78     1
   70    79     1
   71    74     1
   71    75     1
   71    76     1
   72    74     1
   72    75     1
   72    76     1
   73    80     1
   73    81     1
   73    82     1
   74    77     1
   74    78     1
   74    79     1
   75    77     1
   75    78     1
   75    79     1
   76    83     1
   76    84     1
   76    85     1
   77    80     1
   77    81     1
   77    82     1
   78    80     1
   78    81     1
   78    82     1
   79    86     1
   79    87     1
   79    88     1
   80    83     1
   80    84     1
   80    85     1
   81    83     1
   81    84     1
   81    85     1
   82    89     1
   82    90     1
   83    86     1
   83    87     1
   83    88     1
   84    86     1
   84    87     1
   84    88     1
   85    91     1
   85    92     1
   86    89     1
   86    90     1
   87    89     1
   87    90     1
   88    93     1
   88    94     1
   88    95     1
   89    91     1
   89    92     1
   90    96     1
   90    97     1
   91    93     1
   91    94     1
   91    95     1
   92    98     1
   92    99     1
   93    96     1
   93    97     1
   94    96     1
   94    97     1
   95   100     1
   95   101     1
   95   102     1
   96    98     1
   96    99     1
   97   103     1
   97   104     1
   98   100     1
   98   101     1
   98   102     1
   99   105     1
   99   106     1
  100   103     1
  100   104     1
  101   103     1
  101   104     1
  102   107     1
  102   108     1
  102   109     1
  103   105     1
  103   106     1
  104   110     1
  104   111     1
  104   112     1
  105   107     1
  105   108     1
  105   109     1
  107   110     1
  107   111     1
  107   112     1
  108   110     1
  108   111     1
  108   112     1
  113   120     1
  113   121     1
  113   122     1
  114   117     1
  114   118     1
  114   119     1
  115   117     1
  115   118     1
  115   119     1
  116   123     1
  116   124     1
  116   125     1
  117   120     1
  117   121     1
  117   122     1
  118   120     1
  118   121     1
  118   122     1
  119   126     1
  119   127     1
  119   128     1
  120   123     1
  120   124     1
  120   125     1
  121   123     1
  121   124     1
  121   125     1
  122   129     1
  122   130     1
  122   131     1
  123   126     1
  123   127     1
  123   128     1
  124   126     1
  124   127     1
  124   128     1
  125   132     1
  125   133     1
  126   129     1
  126   130     1
  126   131     1
  127   129     1
  127   130     1
  127   131     1
  128   134     1
  128   135     1
  129   132     1
  129   133     1
  130   132     1
  130   133     1
  131   136     1
  131   137     1
  131   138     1
  132   134     1
  132   135     1
  133   139     1
  133   140     1
  134   136     1
  134   137     1
  134   138     1
  135   141     1
  135   142     1
  136   139     1
  136   140     1
  137   139     1
  137   140     1
  138   143     1
  138   144     1
  138   145     1
  139   141     1
  139   142     1
  140   146     1
  140   147     1
  141   143     1
  141   144     1
  141   145     1
  142   148     1
  142   149     1
  143   146     1
  143   147     1
  144   146     1
  144   147     1
  145   150     1
  145   151     1
  145   152     1
  146   148     1
  146   149     1
  147   153     1
  147   154     1
  147   155     1
  148   150     1
  148   151     1
  148   152     1
  150   153     1
  150   154     1
  150   155     1
  151   153     1
  151   154     1
  151   155     1

[ angles ] 
; ai	aj	ak	funct	th0	cth	S0	Kub
    2     1     3     5
    2     1     4     5
    2     1    10     5
    3     1     4     5
    3     1    10     5
    4     1    10     5
    1     4     6     5
    4     6     5     5
    4     6     7     5
    5     6     7     5
    6     7     8     5
    6     7     9     5
    6     7    27     5
    8     7     9     5
    8     7    27     5
    9     7    27     5
    1    10    11     5
    1    10    12     5
    1    10    18     5
   11    10    12     5
   11    10    18     5
   12    10    18     5
   10    12    13     5
   12    13    14     5
   12    13    15     5
   14    13    15     5
   13    15    16     5
   13    15    17     5
   13    15    70     5
   16    15    17     5
   16    15    70     5
   17    15    70     5
   10    18    19     5
   10    18    20     5
   10    18    21     5
   19    18    20     5
   19    18    21     5
   20    18    21     5
   18    21    22     5
   21    22    23     5
   21    22    24     5
   23    22    24     5
   22    24    25     5
   22    24    26     5
   22    24   113     5
   25    24    26     5
   25    24   113     5
   26    24   113     5
    7    27    28     5
    7    27    29     5
    7    27    30     5
   28    27    29     5
   28    27    30     5
   29    27    30     5
   27    30    31     5
   27    30    32     5
   27    30    33     5
   31    30    32     5
   31    30    33     5
   32    30    33     5
   30    33    34     5
   30    33    35     5
   30    33    36     5
   34    33    35     5
   34    33    36     5
   35    33    36     5
   33    36    37     5
   33    36    38     5
   33    36    39     5
   37    36    38     5
   37    36    39     5
   38    36    39     5
   36    39    40     5
   36    39    41     5
   36    39    42     5
   40    39    41     5
   40    39    42     5
   41    39    42     5
   39    42    43     5
   39    42    44     5
   39    42    45     5
   43    42    44     5
   43    42    45     5
   44    42    45     5
   42    45    46     5
   42    45    47     5
   46    45    47     5
   45    47    48     5
   45    47    49     5
   48    47    49     5
   47    49    50     5
   47    49    51     5
   47    49    52     5
   50    49    51     5
   50    49    52     5
   51    49    52     5
   49    52    53     5
   49    52    54     5
   53    52    54     5
   52    54    55     5
   52    54    56     5
   55    54    56     5
   54    56    57     5
   54    56    58     5
   54    56    59     5
   57    56    58     5
   57    56    59     5
   58    56    59     5
   56    59    60     5
   56    59    61     5
   60    59    61     5
   59    61    62     5
   59    61    63     5
   62    61    63     5
   61    63    64     5
   61    63    65     5
   61    63    66     5
   64    63    65     5
   64    63    66     5
   65    63    66     5
   63    66    67     5
   63    66    68     5
   63    66    69     5
   67    66    68     5
   67    66    69     5
   68    66    69     5
   15    70    71     5
   15    70    72     5
   15    70    73     5
   71    70    72     5
   71    70    73     5
   72    70    73     5
   70    73    74     5
   70    73    75     5
   70    73    76     5
   74    73    75     5
   74    73    76     5
   75    73    76     5
   73    76    77     5
   73    76    78     5
   73    76    79     5
   77    76    78     5
   77    76    79     5
   78    76    79     5
   76    79    80     5
   76    79    81     5
   76    79    82     5
   80    79    81     5
   80    79    82     5
   81    79    82     5
   79    82    83     5
   79    82    84     5
   79    82    85     5
   83    82    84     5
   83    82    85     5
   84    82    85     5
   82    85    86     5
   82    85    87     5
   82    85    88     5
   86    85    87     5
   86    85    88     5
   87    85    88     5
   85    88    89     5
   85    88    90     5
   89    88    90     5
   88    90    91     5
   88    90    92     5
   91    90    92     5
   90    92    93     5
   90    92    94     5
   90    92    95     5
   93    92    94     5
   93    92    95     5
   94    92    95     5
   92    95    96     5
   92    95    97     5
   96    95    97     5
   95    97    98     5
   95    97    99     5
   98    97    99     5
   97    99   100     5
   97    99   101     5
   97    99   102     5
  100    99   101     5
  100    99   102     5
  101    99   102     5
   99   102   103     5
   99   102   104     5
  103   102   104     5
  102   104   105     5
  102   104   106     5
  105   104   106     5
  104   106   107     5
  104   106   108     5
  104   106   109     5
  107   106   108     5
  107   106   109     5
  108   106   109     5
  106   109   110     5
  106   109   111     5
  106   109   112     5
  110   109   111     5
  110   109   112     5
  111   109   112     5
   24   113   114     5
   24   113   115     5
   24   113   116     5
  114   113   115     5
  114   113   116     5
  115   113   116     5
  113   116   117     5
  113   116   118     5
  113   116   119     5
  117   116   118     5
  117   116   119     5
  118   116   119     5
  116   119   120     5
  116   119   121     5
  116   119   122     5
  120   119   121     5
  120   119   122     5
  121   119   122     5
  119   122   123     5
  119   122   124     5
  119   122   125     5
  123   122   124     5
  123   122   125     5
  124   122   125     5
  122   125   126     5
  122   125   127     5
  122   125   128     5
  126   125   127     5
  126   125   128     5
  127   125   128     5
  125   128   129     5
  125   128   130     5
  125   128   131     5
  129   128   130     5
  129   128   131     5
  130   128   131     5
  128   131   132     5
  128   131   133     5
  132   131   133     5
  131   133   134     5
  131   133   135     5
  134   133   135     5
  133   135   136     5
  133   135   137     5
  133   135   138     5
  136   135   137     5
  136   135   138     5
  137   135   138     5
  135   138   139     5
  135   138   140     5
  139   138   140     5
  138   140   141     5
  138   140   142     5
  141   140   142     5
  140   142   143     5
  140   142   144     5
  140   142   145     5
  143   142   144     5
  143   142   145     5
  144   142   145     5
  142   145   146     5
  142   145   147     5
  146   145   147     5
  145   147   148     5
  145   147   149     5
  148   147   149     5
  147   149   150     5
  147   149   151     5
  147   149   152     5
  150   149   151     5
  150   149   152     5
  151   149   152     5
  149   152   153     5
  149   152   154     5
  149   152   155     5
  153   152   154     5
  153   152   155     5
  154   152   155     5

[ dihedrals ]
; ai	aj	ak	al	funct	phi0	cp	mult
    2     1     4     6     9
    3     1     4     6     9
    2     1    10    11     9
    2     1    10    12     9
    2     1    10    18     9
    3     1    10    11     9
    3     1    10    12     9
    3     1    10    18     9
    4     1    10    11     9
    4     1    10    12     9
    4     1    10    18     9
    6     4     1    10     9
    1     4     6     5     9
    1     4     6     7     9
    4     6     7     8     9
    4     6     7     9     9
    4     6     7    27     9
    5     6     7     8     9
    5     6     7     9     9
    5     6     7    27     9
    6     7    27    28     9
    6     7    27    29     9
    6     7    27    30     9
    8     7    27    28     9
    8     7    27    29     9
    8     7    27    30     9
    9     7    27    28     9
    9     7    27    29     9
    9     7    27    30     9
    1    10    12    13     9
   11    10    12    13     9
    1    10    18    19     9
    1    10    18    20     9
    1    10    18    21     9
   11    10    18    19     9
   11    10    18    20     9
   11    10    18    21     9
   12    10    18    19     9
   12    10    18    20     9
   12    10    18    21     9
   13    12    10    18     9
   10    12    13    14     9
   10    12    13    15     9
   12    13    15    16     9
   12    13    15    17     9
   12    13    15    70     9
   14    13    15    16     9
   14    13    15    17     9
   14    13    15    70     9
   13    15    70    71     9
   13    15    70    72     9
   13    15    70    73     9
   16    15    70    71     9
   16    15    70    72     9
   16    15    70    73     9
   17    15    70    71     9
   17    15    70    72     9
   17    15    70    73     9
   10    18    21    22     9
   19    18    21    22     9
   20    18    21    22     9
   18    21    22    23     9
   18    21    22    24     9
   21    22    24    25     9
   21    22    24    26     9
   21    22    24   113     9
   23    22    24    25     9
   23    22    24    26     9
   23    22    24   113     9
   22    24   113   114     9
   22    24   113   115     9
   22    24   113   116     9
   25    24   113   114     9
   25    24   113   115     9
   25    24   113   116     9
   26    24   113   114     9
   26    24   113   115     9
   26    24   113   116     9
    7    27    30    31     9
    7    27    30    32     9
    7    27    30    33     9
   28    27    30    31     9
   28    27    30    32     9
   28    27    30    33     9
   29    27    30    31     9
   29    27    30    32     9
   29    27    30    33     9
   27    30    33    34     9
   27    30    33    35     9
   27    30    33    36     9
   31    30    33    34     9
   31    30    33    35     9
   31    30    33    36     9
   32    30    33    34     9
   32    30    33    35     9
   32    30    33    36     9
   30    33    36    37     9
   30    33    36    38     9
   30    33    36    39     9
   34    33    36    37     9
   34    33    36    38     9
   34    33    36    39     9
   35    33    36    37     9
   35    33    36    38     9
   35    33    36    39     9
   33    36    39    40     9
   33    36    39    41     9
   33    36    39    42     9
   37    36    39    40     9
   37    36    39    41     9
   37    36    39    42     9
   38    36    39    40     9
   38    36    39    41     9
   38    36    39    42     9
   36    39    42    43     9
   36    39    42    44     9
   36    39    42    45     9
   40    39    42    43     9
   40    39    42    44     9
   40    39    42    45     9
   41    39    42    43     9
   41    39    42    44     9
   41    39    42    45     9
   39    42    45    46     9
   39    42    45    47     9
   43    42    45    46     9
   43    42    45    47     9
   44    42    45    46     9
   44    42    45    47     9
   42    45    47    48     9
   42    45    47    49     9
   46    45    47    48     9
   46    45    47    49     9
   45    47    49    50     9
   45    47    49    51     9
   45    47    49    52     9
   48    47    49    50     9
   48    47    49    51     9
   48    47    49    52     9
   47    49    52    53     9
   47    49    52    54     9
   50    49    52    53     9
   50    49    52    54     9
   51    49    52    53     9
   51    49    52    54     9
   49    52    54    55     9
   49    52    54    56     9
   53    52    54    55     9
   53    52    54    56     9
   52    54    56    57     9
   52    54    56    58     9
   52    54    56    59     9
   55    54    56    57     9
   55    54    56    58     9
   55    54    56    59     9
   54    56    59    60     9
   54    56    59    61     9
   57    56    59    60     9
   57    56    59    61     9
   58    56    59    60     9
   58    56    59    61     9
   56    59    61    62     9
   56    59    61    63     9
   60    59    61    62     9
   60    59    61    63     9
   59    61    63    64     9
   59    61    63    65     9
   59    61    63    66     9
   62    61    63    64     9
   62    61    63    65     9
   62    61    63    66     9
   61    63    66    67     9
   61    63    66    68     9
   61    63    66    69     9
   64    63    66    67     9
   64    63    66    68     9
   64    63    66    69     9
   65    63    66    67     9
   65    63    66    68     9
   65    63    66    69     9
   15    70    73    74     9
   15    70    73    75     9
   15    70    73    76     9
   71    70    73    74     9
   71    70    73    75     9
   71    70    73    76     9
   72    70    73    74     9
   72    70    73    75     9
   72    70    73    76     9
   70    73    76    77     9
   70    73    76    78     9
   70    73    76    79     9
   74    73    76    77     9
   74    73    76    78     9
   74    73    76    79     9
   75    73    76    77     9
   75    73    76    78     9
   75    73    76    79     9
   73    76    79    80     9
   73    76    79    81     9
   73    76    79    82     9
   77    76    79    80     9
   77    76    79    81     9
   77    76    79    82     9
   78    76    79    80     9
   78    76    79    81     9
   78    76    79    82     9
   76    79    82    83     9
   76    79    82    84     9
   76    79    82    85     9
   80    79    82    83     9
   80    79    82    84     9
   80    79    82    85     9
   81    79    82    83     9
   81    79    82    84     9
   81    79    82    85     9
   79    82    85    86     9
   79    82    85    87     9
   79    82    85    88     9
   83    82    85    86     9
   83    82    85    87     9
   83    82    85    88     9
   84    82    85    86     9
   84    82    85    87     9
   84    82    85    88     9
   82    85    88    89     9
   82    85    88    90     9
   86    85    88    89     9
   86    85    88    90     9
   87    85    88    89     9
   87    85    88    90     9
   85    88    90    91     9
   85    88    90    92     9
   89    88    90    91     9
   89    88    90    92     9
   88    90    92    93     9
   88    90    92    94     9
   88    90    92    95     9
   91    90    92    93     9
   91    90    92    94     9
   91    90    92    95     9
   90    92    95    96     9
   90    92    95    97     9
   93    92    95    96     9
   93    92    95    97     9
   94    92    95    96     9
   94    92    95    97     9
   92    95    97    98     9
   92    95    97    99     9
   96    95    97    98     9
   96    95    97    99     9
   95    97    99   100     9
   95    97    99   101     9
   95    97    99   102     9
   98    97    99   100     9
   98    97    99   101     9
   98    97    99   102     9
   97    99   102   103     9
   97    99   102   104     9
  100    99   102   103     9
  100    99   102   104     9
  101    99   102   103     9
  101    99   102   104     9
   99   102   104   105     9
   99   102   104   106     9
  103   102   104   105     9
  103   102   104   106     9
  102   104   106   107     9
  102   104   106   108     9
  102   104   106   109     9
  105   104   106   107     9
  105   104   106   108     9
  105   104   106   109     9
  104   106   109   110     9
  104   106   109   111     9
  104   106   109   112     9
  107   106   109   110     9
  107   106   109   111     9
  107   106   109   112     9
  108   106   109   110     9
  108   106   109   111     9
  108   106   109   112     9
   24   113   116   117     9
   24   113   116   118     9
   24   113   116   119     9
  114   113   116   117     9
  114   113   116   118     9
  114   113   116   119     9
  115   113   116   117     9
  115   113   116   118     9
  115   113   116   119     9
  113   116   119   120     9
  113   116   119   121     9
  113   116   119   122     9
  117   116   119   120     9
  117   116   119   121     9
  117   116   119   122     9
  118   116   119   120     9
  118   116   119   121     9
  118   116   119   122     9
  116   119   122   123     9
  116   119   122   124     9
  116   119   122   125     9
  120   119   122   123     9
  120   119   122   124     9
  120   119   122   125     9
  121   119   122   123     9
  121   119   122   124     9
  121   119   122   125     9
  119   122   125   126     9
  119   122   125   127     9
  119   122   125   128     9
  123   122   125   126     9
  123   122   125   127     9
  123   122   125   128     9
  124   122   125   126     9
  124   122   125   127     9
  124   122   125   128     9
  122   125   128   129     9
  122   125   128   130     9
  122   125   128   131     9
  126   125   128   129     9
  126   125   128   130     9
  126   125   128   131     9
  127   125   128   129     9
  127   125   128   130     9
  127   125   128   131     9
  125   128   131   132     9
  125   128   131   133     9
  129   128   131   132     9
  129   128   131   133     9
  130   128   131   132     9
  130   128   131   133     9
  128   131   133   134     9
  128   131   133   135     9
  132   131   133   134     9
  132   131   133   135     9
  131   133   135   136     9
  131   133   135   137     9
  131   133   135   138     9
  134   133   135   136     9
  134   133   135   137     9
  134   133   135   138     9
  133   135   138   139     9
  133   135   138   140     9
  136   135   138   139     9
  136   135   138   140     9
  137   135   138   139     9
  137   135   138   140     9
  135   138   140   141     9
  135   138   140   142     9
  139   138   140   141     9
  139   138   140   142     9
  138   140   142   143     9
  138   140   142   144     9
  138   140   142   145     9
  141   140   142   143     9
  141   140   142   144     9
  141   140   142   145     9
  140   142   145   146     9
  140   142   145   147     9
  143   142   145   146     9
  143   142   145   147     9
  144   142   145   146     9
  144   142   145   147     9
  142   145   147   148     9
  142   145   147   149     9
  146   145   147   148     9
  146   145   147   149     9
  145   147   149   150     9
  145   147   149   151     9
  145   147   149   152     9
  148   147   149   150     9
  148   147   149   151     9
  148   147   149   152     9
  147   149   152   153     9
  147   149   152   154     9
  147   149   152   155     9
  150   149   152   153     9
  150   149   152   154     9
  150   149   152   155     9
  151   149   152   153     9
  151   149   152   154     9
  151   149   152   155     9

[ dihedrals ]
; ai	aj	ak	al	funct	q0	cq
    6     4     7     5     2
   13    12    15    14     2
   22    21    24    23     2

#ifdef POSRES
[ position_restraints ]
   10     1     0.0             0.0            POSRES_FC_LIPID
#endif

#ifdef DIHRES
[ dihedral_restraints ]
    1    18    10    12     1   -120.0      2.5       DIHRES_FC
   42    45    47    49     1      0.0      0.0       DIHRES_FC
   49    52    54    56     1      0.0      0.0       DIHRES_FC
   56    59    61    63     1      0.0      0.0       DIHRES_FC
   85    88    90    92     1      0.0      0.0       DIHRES_FC
   92    95    97    99     1      0.0      0.0       DIHRES_FC
   99   102   104   106     1      0.0      0.0       DIHRES_FC
  128   131   133   135     1      0.0      0.0       DIHRES_FC
  135   138   140   142     1      0.0      0.0       DIHRES_FC
  142   145   147   149     1      0.0      0.0       DIHRES_FC
#endif
