;;
;; Generated by CHARMM-GUI FF-Converter
;;
;; Correspondance:
;; jul316@lehigh.edu or wonpil@lehigh.edu
;;
;; GROMACS topology file for PLA18
;;


[ moleculetype ]
; name	nrexcl
PLA18	     3

[ atoms ]
; nr	type	resnr	residu	atom	cgnr	charge	mass
     1       NH3L     37    PLA18      N      1    -0.300000    14.0070   ; qtot -0.300
     2        HCL     37    PLA18    HN1      2     0.330000     1.0080   ; qtot  0.030
     3        HCL     37    PLA18    HN2      3     0.330000     1.0080   ; qtot  0.360
     4        HCL     37    PLA18    HN3      4     0.330000     1.0080   ; qtot  0.690
     5       CTL2     37    PLA18    C12      5     0.130000    12.0110   ; qtot  0.820
     6       HAL2     37    PLA18   H12A      6     0.090000     1.0080   ; qtot  0.910
     7       HAL2     37    PLA18   H12B      7     0.090000     1.0080   ; qtot  1.000
     8       CTL2     37    PLA18    C11      8    -0.080000    12.0110   ; qtot  0.920
     9       HAL2     37    PLA18   H11A      9     0.090000     1.0080   ; qtot  1.010
    10       HAL2     37    PLA18   H11B     10     0.090000     1.0080   ; qtot  1.100
    11         PL     37    PLA18      P     11     1.500000    30.9740   ; qtot  2.600
    12        O2L     37    PLA18    O13     12    -0.780000    15.9994   ; qtot  1.820
    13        O2L     37    PLA18    O14     13    -0.780000    15.9994   ; qtot  1.040
    14       OSLP     37    PLA18    O12     14    -0.570000    15.9994   ; qtot  0.470
    15       OSLP     37    PLA18    O11     15    -0.570000    15.9994   ; qtot -0.100
    16       CTL2     37    PLA18     C1     16    -0.080000    12.0110   ; qtot -0.180
    17       HAL2     37    PLA18     HA     17     0.090000     1.0080   ; qtot -0.090
    18       HAL2     37    PLA18     HB     18     0.090000     1.0080   ; qtot  0.000
    19       CTL1     37    PLA18     C2     19     0.170000    12.0110   ; qtot  0.170
    20       HAL1     37    PLA18     HS     20     0.090000     1.0080   ; qtot  0.260
    21        OSL     37    PLA18    O21     21    -0.490000    15.9994   ; qtot -0.230
    22         CL     37    PLA18    C21     22     0.900000    12.0110   ; qtot  0.670
    23        OBL     37    PLA18    O22     23    -0.630000    15.9994   ; qtot  0.040
    24       CTL2     37    PLA18    C22     24    -0.220000    12.0110   ; qtot -0.180
    25       HAL2     37    PLA18    H2R     25     0.090000     1.0080   ; qtot -0.090
    26       HAL2     37    PLA18    H2S     26     0.090000     1.0080   ; qtot  0.000
    27       CTL2     37    PLA18     C3     27     0.080000    12.0110   ; qtot  0.080
    28       HAL2     37    PLA18     HX     28     0.020000     1.0080   ; qtot  0.100
    29       HAL2     37    PLA18     HY     29     0.020000     1.0080   ; qtot  0.120
    30      OG301     37    PLA18    O31     30    -0.560000    15.9994   ; qtot -0.440
    31       CEL1     37    PLA18    C31     31     0.420000    12.0110   ; qtot -0.020
    32       HEL1     37    PLA18    H1X     32     0.020000     1.0080   ; qtot  0.000
    33       CEL1     37    PLA18    C32     33    -0.150000    12.0110   ; qtot -0.150
    34       HEL1     37    PLA18    H2X     34     0.150000     1.0080   ; qtot  0.000
    35       CTL2     37    PLA18    C23     35    -0.180000    12.0110   ; qtot -0.180
    36       HAL2     37    PLA18    H3R     36     0.090000     1.0080   ; qtot -0.090
    37       HAL2     37    PLA18    H3S     37     0.090000     1.0080   ; qtot  0.000
    38       CTL2     37    PLA18    C24     38    -0.180000    12.0110   ; qtot -0.180
    39       HAL2     37    PLA18    H4R     39     0.090000     1.0080   ; qtot -0.090
    40       HAL2     37    PLA18    H4S     40     0.090000     1.0080   ; qtot  0.000
    41       CTL2     37    PLA18    C25     41    -0.180000    12.0110   ; qtot -0.180
    42       HAL2     37    PLA18    H5R     42     0.090000     1.0080   ; qtot -0.090
    43       HAL2     37    PLA18    H5S     43     0.090000     1.0080   ; qtot  0.000
    44       CTL2     37    PLA18    C26     44    -0.180000    12.0110   ; qtot -0.180
    45       HAL2     37    PLA18    H6R     45     0.090000     1.0080   ; qtot -0.090
    46       HAL2     37    PLA18    H6S     46     0.090000     1.0080   ; qtot  0.000
    47       CTL2     37    PLA18    C27     47    -0.180000    12.0110   ; qtot -0.180
    48       HAL2     37    PLA18    H7R     48     0.090000     1.0080   ; qtot -0.090
    49       HAL2     37    PLA18    H7S     49     0.090000     1.0080   ; qtot  0.000
    50       CTL2     37    PLA18    C28     50    -0.180000    12.0110   ; qtot -0.180
    51       HAL2     37    PLA18    H8R     51     0.090000     1.0080   ; qtot -0.090
    52       HAL2     37    PLA18    H8S     52     0.090000     1.0080   ; qtot  0.000
    53       CEL1     37    PLA18    C29     53    -0.150000    12.0110   ; qtot -0.150
    54       HEL1     37    PLA18    H9R     54     0.150000     1.0080   ; qtot  0.000
    55       CEL1     37    PLA18   C210     55    -0.150000    12.0110   ; qtot -0.150
    56       HEL1     37    PLA18   H10R     56     0.150000     1.0080   ; qtot  0.000
    57       CTL2     37    PLA18   C211     57    -0.180000    12.0110   ; qtot -0.180
    58       HAL2     37    PLA18   H11R     58     0.090000     1.0080   ; qtot -0.090
    59       HAL2     37    PLA18   H11S     59     0.090000     1.0080   ; qtot  0.000
    60       CTL2     37    PLA18   C212     60    -0.180000    12.0110   ; qtot -0.180
    61       HAL2     37    PLA18   H12R     61     0.090000     1.0080   ; qtot -0.090
    62       HAL2     37    PLA18   H12S     62     0.090000     1.0080   ; qtot  0.000
    63       CTL2     37    PLA18   C213     63    -0.180000    12.0110   ; qtot -0.180
    64       HAL2     37    PLA18   H13R     64     0.090000     1.0080   ; qtot -0.090
    65       HAL2     37    PLA18   H13S     65     0.090000     1.0080   ; qtot  0.000
    66       CTL2     37    PLA18   C214     66    -0.180000    12.0110   ; qtot -0.180
    67       HAL2     37    PLA18   H14R     67     0.090000     1.0080   ; qtot -0.090
    68       HAL2     37    PLA18   H14S     68     0.090000     1.0080   ; qtot  0.000
    69       CTL2     37    PLA18   C215     69    -0.180000    12.0110   ; qtot -0.180
    70       HAL2     37    PLA18   H15R     70     0.090000     1.0080   ; qtot -0.090
    71       HAL2     37    PLA18   H15S     71     0.090000     1.0080   ; qtot  0.000
    72       CTL2     37    PLA18   C216     72    -0.180000    12.0110   ; qtot -0.180
    73       HAL2     37    PLA18   H16R     73     0.090000     1.0080   ; qtot -0.090
    74       HAL2     37    PLA18   H16S     74     0.090000     1.0080   ; qtot  0.000
    75       CTL2     37    PLA18   C217     75    -0.180000    12.0110   ; qtot -0.180
    76       HAL2     37    PLA18   H17R     76     0.090000     1.0080   ; qtot -0.090
    77       HAL2     37    PLA18   H17S     77     0.090000     1.0080   ; qtot  0.000
    78       CTL3     37    PLA18   C218     78    -0.270000    12.0110   ; qtot -0.270
    79       HAL3     37    PLA18   H18R     79     0.090000     1.0080   ; qtot -0.180
    80       HAL3     37    PLA18   H18S     80     0.090000     1.0080   ; qtot -0.090
    81       HAL3     37    PLA18   H18T     81     0.090000     1.0080   ; qtot  0.000
    82       CTL2     37    PLA18    C33     82    -0.180000    12.0110   ; qtot -0.180
    83       HAL2     37    PLA18    H3X     83     0.090000     1.0080   ; qtot -0.090
    84       HAL2     37    PLA18    H3Y     84     0.090000     1.0080   ; qtot  0.000
    85       CTL2     37    PLA18    C34     85    -0.180000    12.0110   ; qtot -0.180
    86       HAL2     37    PLA18    H4X     86     0.090000     1.0080   ; qtot -0.090
    87       HAL2     37    PLA18    H4Y     87     0.090000     1.0080   ; qtot  0.000
    88       CTL2     37    PLA18    C35     88    -0.180000    12.0110   ; qtot -0.180
    89       HAL2     37    PLA18    H5X     89     0.090000     1.0080   ; qtot -0.090
    90       HAL2     37    PLA18    H5Y     90     0.090000     1.0080   ; qtot  0.000
    91       CTL2     37    PLA18    C36     91    -0.180000    12.0110   ; qtot -0.180
    92       HAL2     37    PLA18    H6X     92     0.090000     1.0080   ; qtot -0.090
    93       HAL2     37    PLA18    H6Y     93     0.090000     1.0080   ; qtot  0.000
    94       CTL2     37    PLA18    C37     94    -0.180000    12.0110   ; qtot -0.180
    95       HAL2     37    PLA18    H7X     95     0.090000     1.0080   ; qtot -0.090
    96       HAL2     37    PLA18    H7Y     96     0.090000     1.0080   ; qtot  0.000
    97       CTL2     37    PLA18    C38     97    -0.180000    12.0110   ; qtot -0.180
    98       HAL2     37    PLA18    H8X     98     0.090000     1.0080   ; qtot -0.090
    99       HAL2     37    PLA18    H8Y     99     0.090000     1.0080   ; qtot  0.000
   100       CTL2     37    PLA18    C39    100    -0.180000    12.0110   ; qtot -0.180
   101       HAL2     37    PLA18    H9X    101     0.090000     1.0080   ; qtot -0.090
   102       HAL2     37    PLA18    H9Y    102     0.090000     1.0080   ; qtot  0.000
   103       CTL2     37    PLA18   C310    103    -0.180000    12.0110   ; qtot -0.180
   104       HAL2     37    PLA18   H10X    104     0.090000     1.0080   ; qtot -0.090
   105       HAL2     37    PLA18   H10Y    105     0.090000     1.0080   ; qtot  0.000
   106       CTL2     37    PLA18   C311    106    -0.180000    12.0110   ; qtot -0.180
   107       HAL2     37    PLA18   H11X    107     0.090000     1.0080   ; qtot -0.090
   108       HAL2     37    PLA18   H11Y    108     0.090000     1.0080   ; qtot  0.000
   109       CTL2     37    PLA18   C312    109    -0.180000    12.0110   ; qtot -0.180
   110       HAL2     37    PLA18   H12X    110     0.090000     1.0080   ; qtot -0.090
   111       HAL2     37    PLA18   H12Y    111     0.090000     1.0080   ; qtot  0.000
   112       CTL2     37    PLA18   C313    112    -0.180000    12.0110   ; qtot -0.180
   113       HAL2     37    PLA18   H13X    113     0.090000     1.0080   ; qtot -0.090
   114       HAL2     37    PLA18   H13Y    114     0.090000     1.0080   ; qtot  0.000
   115       CTL2     37    PLA18   C314    115    -0.180000    12.0110   ; qtot -0.180
   116       HAL2     37    PLA18   H14X    116     0.090000     1.0080   ; qtot -0.090
   117       HAL2     37    PLA18   H14Y    117     0.090000     1.0080   ; qtot  0.000
   118       CTL2     37    PLA18   C315    118    -0.180000    12.0110   ; qtot -0.180
   119       HAL2     37    PLA18   H15X    119     0.090000     1.0080   ; qtot -0.090
   120       HAL2     37    PLA18   H15Y    120     0.090000     1.0080   ; qtot  0.000
   121       CTL2     37    PLA18   C316    121    -0.180000    12.0110   ; qtot -0.180
   122       HAL2     37    PLA18   H16X    122     0.090000     1.0080   ; qtot -0.090
   123       HAL2     37    PLA18   H16Y    123     0.090000     1.0080   ; qtot  0.000
   124       CTL2     37    PLA18   C317    124    -0.180000    12.0110   ; qtot -0.180
   125       HAL2     37    PLA18   H17X    125     0.090000     1.0080   ; qtot -0.090
   126       HAL2     37    PLA18   H17Y    126     0.090000     1.0080   ; qtot  0.000
   127       CTL3     37    PLA18   C318    127    -0.270000    12.0110   ; qtot -0.270
   128       HAL3     37    PLA18   H18X    128     0.090000     1.0080   ; qtot -0.180
   129       HAL3     37    PLA18   H18Y    129     0.090000     1.0080   ; qtot -0.090
   130       HAL3     37    PLA18   H18Z    130     0.090000     1.0080   ; qtot  0.000

[ bonds ]
; ai	aj	funct	b0	Kb
    1     2     1
    1     3     1
    1     4     1
    1     5     1
    5     6     1
    5     7     1
    5     8     1
    8     9     1
    8    10     1
    8    14     1
   11    12     1
   11    13     1
   14    11     1
   11    15     1
   16    15     1
   16    17     1
   16    18     1
   16    19     1
   19    20     1
   19    21     1
   19    27     1
   21    22     1
   22    23     1
   22    24     1
   24    25     1
   24    26     1
   24    35     1
   27    28     1
   27    29     1
   27    30     1
   30    31     1
   31    32     1
   31    33     1
   33    34     1
   33    82     1
   35    36     1
   35    37     1
   35    38     1
   38    39     1
   38    40     1
   38    41     1
   41    42     1
   41    43     1
   41    44     1
   44    45     1
   44    46     1
   44    47     1
   47    48     1
   47    49     1
   47    50     1
   50    51     1
   50    52     1
   50    53     1
   53    54     1
   53    55     1
   55    56     1
   55    57     1
   57    58     1
   57    59     1
   57    60     1
   60    61     1
   60    62     1
   60    63     1
   63    64     1
   63    65     1
   63    66     1
   66    67     1
   66    68     1
   66    69     1
   69    70     1
   69    71     1
   69    72     1
   72    73     1
   72    74     1
   72    75     1
   75    76     1
   75    77     1
   75    78     1
   78    79     1
   78    80     1
   78    81     1
   82    83     1
   82    84     1
   82    85     1
   85    86     1
   85    87     1
   85    88     1
   88    89     1
   88    90     1
   88    91     1
   91    92     1
   91    93     1
   91    94     1
   94    95     1
   94    96     1
   94    97     1
   97    98     1
   97    99     1
   97   100     1
  100   101     1
  100   102     1
  100   103     1
  103   104     1
  103   105     1
  103   106     1
  106   107     1
  106   108     1
  106   109     1
  109   110     1
  109   111     1
  109   112     1
  112   113     1
  112   114     1
  112   115     1
  115   116     1
  115   117     1
  115   118     1
  118   119     1
  118   120     1
  118   121     1
  121   122     1
  121   123     1
  121   124     1
  124   125     1
  124   126     1
  124   127     1
  127   128     1
  127   129     1
  127   130     1

[ pairs ]
; ai	aj	funct	c6	c12 or
; ai	aj	funct	fudgeQQ	q1	q2	c6	c12
    1     9     1
    1    10     1
    1    14     1
    2     6     1
    2     7     1
    2     8     1
    3     6     1
    3     7     1
    3     8     1
    4     6     1
    4     7     1
    4     8     1
    5    11     1
    6     9     1
    6    10     1
    6    14     1
    7     9     1
    7    10     1
    7    14     1
    8    12     1
    8    13     1
    8    15     1
    9    11     1
   10    11     1
   11    17     1
   11    18     1
   11    19     1
   12    16     1
   13    16     1
   14    16     1
   15    20     1
   15    21     1
   15    27     1
   16    22     1
   16    28     1
   16    29     1
   16    30     1
   17    20     1
   17    21     1
   17    27     1
   18    20     1
   18    21     1
   18    27     1
   19    23     1
   19    24     1
   19    31     1
   20    22     1
   20    28     1
   20    29     1
   20    30     1
   21    25     1
   21    26     1
   21    28     1
   21    29     1
   21    30     1
   21    35     1
   22    27     1
   22    36     1
   22    37     1
   22    38     1
   23    25     1
   23    26     1
   23    35     1
   24    39     1
   24    40     1
   24    41     1
   25    36     1
   25    37     1
   25    38     1
   26    36     1
   26    37     1
   26    38     1
   27    32     1
   27    33     1
   28    31     1
   29    31     1
   30    34     1
   30    82     1
   31    83     1
   31    84     1
   31    85     1
   32    34     1
   32    82     1
   33    86     1
   33    87     1
   33    88     1
   34    83     1
   34    84     1
   34    85     1
   35    42     1
   35    43     1
   35    44     1
   36    39     1
   36    40     1
   36    41     1
   37    39     1
   37    40     1
   37    41     1
   38    45     1
   38    46     1
   38    47     1
   39    42     1
   39    43     1
   39    44     1
   40    42     1
   40    43     1
   40    44     1
   41    48     1
   41    49     1
   41    50     1
   42    45     1
   42    46     1
   42    47     1
   43    45     1
   43    46     1
   43    47     1
   44    51     1
   44    52     1
   44    53     1
   45    48     1
   45    49     1
   45    50     1
   46    48     1
   46    49     1
   46    50     1
   47    54     1
   47    55     1
   48    51     1
   48    52     1
   48    53     1
   49    51     1
   49    52     1
   49    53     1
   50    56     1
   50    57     1
   51    54     1
   51    55     1
   52    54     1
   52    55     1
   53    58     1
   53    59     1
   53    60     1
   54    56     1
   54    57     1
   55    61     1
   55    62     1
   55    63     1
   56    58     1
   56    59     1
   56    60     1
   57    64     1
   57    65     1
   57    66     1
   58    61     1
   58    62     1
   58    63     1
   59    61     1
   59    62     1
   59    63     1
   60    67     1
   60    68     1
   60    69     1
   61    64     1
   61    65     1
   61    66     1
   62    64     1
   62    65     1
   62    66     1
   63    70     1
   63    71     1
   63    72     1
   64    67     1
   64    68     1
   64    69     1
   65    67     1
   65    68     1
   65    69     1
   66    73     1
   66    74     1
   66    75     1
   67    70     1
   67    71     1
   67    72     1
   68    70     1
   68    71     1
   68    72     1
   69    76     1
   69    77     1
   69    78     1
   70    73     1
   70    74     1
   70    75     1
   71    73     1
   71    74     1
   71    75     1
   72    79     1
   72    80     1
   72    81     1
   73    76     1
   73    77     1
   73    78     1
   74    76     1
   74    77     1
   74    78     1
   76    79     1
   76    80     1
   76    81     1
   77    79     1
   77    80     1
   77    81     1
   82    89     1
   82    90     1
   82    91     1
   83    86     1
   83    87     1
   83    88     1
   84    86     1
   84    87     1
   84    88     1
   85    92     1
   85    93     1
   85    94     1
   86    89     1
   86    90     1
   86    91     1
   87    89     1
   87    90     1
   87    91     1
   88    95     1
   88    96     1
   88    97     1
   89    92     1
   89    93     1
   89    94     1
   90    92     1
   90    93     1
   90    94     1
   91    98     1
   91    99     1
   91   100     1
   92    95     1
   92    96     1
   92    97     1
   93    95     1
   93    96     1
   93    97     1
   94   101     1
   94   102     1
   94   103     1
   95    98     1
   95    99     1
   95   100     1
   96    98     1
   96    99     1
   96   100     1
   97   104     1
   97   105     1
   97   106     1
   98   101     1
   98   102     1
   98   103     1
   99   101     1
   99   102     1
   99   103     1
  100   107     1
  100   108     1
  100   109     1
  101   104     1
  101   105     1
  101   106     1
  102   104     1
  102   105     1
  102   106     1
  103   110     1
  103   111     1
  103   112     1
  104   107     1
  104   108     1
  104   109     1
  105   107     1
  105   108     1
  105   109     1
  106   113     1
  106   114     1
  106   115     1
  107   110     1
  107   111     1
  107   112     1
  108   110     1
  108   111     1
  108   112     1
  109   116     1
  109   117     1
  109   118     1
  110   113     1
  110   114     1
  110   115     1
  111   113     1
  111   114     1
  111   115     1
  112   119     1
  112   120     1
  112   121     1
  113   116     1
  113   117     1
  113   118     1
  114   116     1
  114   117     1
  114   118     1
  115   122     1
  115   123     1
  115   124     1
  116   119     1
  116   120     1
  116   121     1
  117   119     1
  117   120     1
  117   121     1
  118   125     1
  118   126     1
  118   127     1
  119   122     1
  119   123     1
  119   124     1
  120   122     1
  120   123     1
  120   124     1
  121   128     1
  121   129     1
  121   130     1
  122   125     1
  122   126     1
  122   127     1
  123   125     1
  123   126     1
  123   127     1
  125   128     1
  125   129     1
  125   130     1
  126   128     1
  126   129     1
  126   130     1

[ angles ] 
; ai	aj	ak	funct	th0	cth	S0	Kub
    2     1     3     5
    2     1     4     5
    2     1     5     5
    3     1     4     5
    3     1     5     5
    4     1     5     5
    1     5     6     5
    1     5     7     5
    1     5     8     5
    6     5     7     5
    6     5     8     5
    7     5     8     5
    5     8     9     5
    5     8    10     5
    5     8    14     5
    9     8    10     5
    9     8    14     5
   10     8    14     5
   12    11    13     5
   12    11    14     5
   12    11    15     5
   13    11    14     5
   13    11    15     5
   14    11    15     5
    8    14    11     5
   11    15    16     5
   15    16    17     5
   15    16    18     5
   15    16    19     5
   17    16    18     5
   17    16    19     5
   18    16    19     5
   16    19    20     5
   16    19    21     5
   16    19    27     5
   20    19    21     5
   20    19    27     5
   21    19    27     5
   19    21    22     5
   21    22    23     5
   21    22    24     5
   23    22    24     5
   22    24    25     5
   22    24    26     5
   22    24    35     5
   25    24    26     5
   25    24    35     5
   26    24    35     5
   19    27    28     5
   19    27    29     5
   19    27    30     5
   28    27    29     5
   28    27    30     5
   29    27    30     5
   27    30    31     5
   30    31    32     5
   30    31    33     5
   32    31    33     5
   31    33    34     5
   31    33    82     5
   34    33    82     5
   24    35    36     5
   24    35    37     5
   24    35    38     5
   36    35    37     5
   36    35    38     5
   37    35    38     5
   35    38    39     5
   35    38    40     5
   35    38    41     5
   39    38    40     5
   39    38    41     5
   40    38    41     5
   38    41    42     5
   38    41    43     5
   38    41    44     5
   42    41    43     5
   42    41    44     5
   43    41    44     5
   41    44    45     5
   41    44    46     5
   41    44    47     5
   45    44    46     5
   45    44    47     5
   46    44    47     5
   44    47    48     5
   44    47    49     5
   44    47    50     5
   48    47    49     5
   48    47    50     5
   49    47    50     5
   47    50    51     5
   47    50    52     5
   47    50    53     5
   51    50    52     5
   51    50    53     5
   52    50    53     5
   50    53    54     5
   50    53    55     5
   54    53    55     5
   53    55    56     5
   53    55    57     5
   56    55    57     5
   55    57    58     5
   55    57    59     5
   55    57    60     5
   58    57    59     5
   58    57    60     5
   59    57    60     5
   57    60    61     5
   57    60    62     5
   57    60    63     5
   61    60    62     5
   61    60    63     5
   62    60    63     5
   60    63    64     5
   60    63    65     5
   60    63    66     5
   64    63    65     5
   64    63    66     5
   65    63    66     5
   63    66    67     5
   63    66    68     5
   63    66    69     5
   67    66    68     5
   67    66    69     5
   68    66    69     5
   66    69    70     5
   66    69    71     5
   66    69    72     5
   70    69    71     5
   70    69    72     5
   71    69    72     5
   69    72    73     5
   69    72    74     5
   69    72    75     5
   73    72    74     5
   73    72    75     5
   74    72    75     5
   72    75    76     5
   72    75    77     5
   72    75    78     5
   76    75    77     5
   76    75    78     5
   77    75    78     5
   75    78    79     5
   75    78    80     5
   75    78    81     5
   79    78    80     5
   79    78    81     5
   80    78    81     5
   33    82    83     5
   33    82    84     5
   33    82    85     5
   83    82    84     5
   83    82    85     5
   84    82    85     5
   82    85    86     5
   82    85    87     5
   82    85    88     5
   86    85    87     5
   86    85    88     5
   87    85    88     5
   85    88    89     5
   85    88    90     5
   85    88    91     5
   89    88    90     5
   89    88    91     5
   90    88    91     5
   88    91    92     5
   88    91    93     5
   88    91    94     5
   92    91    93     5
   92    91    94     5
   93    91    94     5
   91    94    95     5
   91    94    96     5
   91    94    97     5
   95    94    96     5
   95    94    97     5
   96    94    97     5
   94    97    98     5
   94    97    99     5
   94    97   100     5
   98    97    99     5
   98    97   100     5
   99    97   100     5
   97   100   101     5
   97   100   102     5
   97   100   103     5
  101   100   102     5
  101   100   103     5
  102   100   103     5
  100   103   104     5
  100   103   105     5
  100   103   106     5
  104   103   105     5
  104   103   106     5
  105   103   106     5
  103   106   107     5
  103   106   108     5
  103   106   109     5
  107   106   108     5
  107   106   109     5
  108   106   109     5
  106   109   110     5
  106   109   111     5
  106   109   112     5
  110   109   111     5
  110   109   112     5
  111   109   112     5
  109   112   113     5
  109   112   114     5
  109   112   115     5
  113   112   114     5
  113   112   115     5
  114   112   115     5
  112   115   116     5
  112   115   117     5
  112   115   118     5
  116   115   117     5
  116   115   118     5
  117   115   118     5
  115   118   119     5
  115   118   120     5
  115   118   121     5
  119   118   120     5
  119   118   121     5
  120   118   121     5
  118   121   122     5
  118   121   123     5
  118   121   124     5
  122   121   123     5
  122   121   124     5
  123   121   124     5
  121   124   125     5
  121   124   126     5
  121   124   127     5
  125   124   126     5
  125   124   127     5
  126   124   127     5
  124   127   128     5
  124   127   129     5
  124   127   130     5
  128   127   129     5
  128   127   130     5
  129   127   130     5

[ dihedrals ]
; ai	aj	ak	al	funct	phi0	cp	mult
    2     1     5     6     9
    2     1     5     7     9
    2     1     5     8     9
    3     1     5     6     9
    3     1     5     7     9
    3     1     5     8     9
    4     1     5     6     9
    4     1     5     7     9
    4     1     5     8     9
    1     5     8     9     9
    1     5     8    10     9
    1     5     8    14     9
    6     5     8     9     9
    6     5     8    10     9
    6     5     8    14     9
    7     5     8     9     9
    7     5     8    10     9
    7     5     8    14     9
    5     8    14    11     9
    9     8    14    11     9
   10     8    14    11     9
   12    11    15    16     9
   13    11    15    16     9
   14    11    15    16     9
    8    14    11    12     9
    8    14    11    13     9
    8    14    11    15     9
   11    15    16    17     9
   11    15    16    18     9
   11    15    16    19     9
   15    16    19    20     9
   15    16    19    21     9
   15    16    19    27     9
   17    16    19    20     9
   17    16    19    21     9
   17    16    19    27     9
   18    16    19    20     9
   18    16    19    21     9
   18    16    19    27     9
   16    19    21    22     9
   20    19    21    22     9
   16    19    27    28     9
   16    19    27    29     9
   16    19    27    30     9
   20    19    27    28     9
   20    19    27    29     9
   20    19    27    30     9
   21    19    27    28     9
   21    19    27    29     9
   21    19    27    30     9
   22    21    19    27     9
   19    21    22    23     9
   19    21    22    24     9
   21    22    24    25     9
   21    22    24    26     9
   21    22    24    35     9
   23    22    24    25     9
   23    22    24    26     9
   23    22    24    35     9
   22    24    35    36     9
   22    24    35    37     9
   22    24    35    38     9
   25    24    35    36     9
   25    24    35    37     9
   25    24    35    38     9
   26    24    35    36     9
   26    24    35    37     9
   26    24    35    38     9
   19    27    30    31     9
   28    27    30    31     9
   29    27    30    31     9
   27    30    31    32     9
   27    30    31    33     9
   30    31    33    34     9
   30    31    33    82     9
   32    31    33    34     9
   32    31    33    82     9
   31    33    82    83     9
   31    33    82    84     9
   31    33    82    85     9
   34    33    82    83     9
   34    33    82    84     9
   34    33    82    85     9
   24    35    38    39     9
   24    35    38    40     9
   24    35    38    41     9
   36    35    38    39     9
   36    35    38    40     9
   36    35    38    41     9
   37    35    38    39     9
   37    35    38    40     9
   37    35    38    41     9
   35    38    41    42     9
   35    38    41    43     9
   35    38    41    44     9
   39    38    41    42     9
   39    38    41    43     9
   39    38    41    44     9
   40    38    41    42     9
   40    38    41    43     9
   40    38    41    44     9
   38    41    44    45     9
   38    41    44    46     9
   38    41    44    47     9
   42    41    44    45     9
   42    41    44    46     9
   42    41    44    47     9
   43    41    44    45     9
   43    41    44    46     9
   43    41    44    47     9
   41    44    47    48     9
   41    44    47    49     9
   41    44    47    50     9
   45    44    47    48     9
   45    44    47    49     9
   45    44    47    50     9
   46    44    47    48     9
   46    44    47    49     9
   46    44    47    50     9
   44    47    50    51     9
   44    47    50    52     9
   44    47    50    53     9
   48    47    50    51     9
   48    47    50    52     9
   48    47    50    53     9
   49    47    50    51     9
   49    47    50    52     9
   49    47    50    53     9
   47    50    53    54     9
   47    50    53    55     9
   51    50    53    54     9
   51    50    53    55     9
   52    50    53    54     9
   52    50    53    55     9
   50    53    55    56     9
   50    53    55    57     9
   54    53    55    56     9
   54    53    55    57     9
   53    55    57    58     9
   53    55    57    59     9
   53    55    57    60     9
   56    55    57    58     9
   56    55    57    59     9
   56    55    57    60     9
   55    57    60    61     9
   55    57    60    62     9
   55    57    60    63     9
   58    57    60    61     9
   58    57    60    62     9
   58    57    60    63     9
   59    57    60    61     9
   59    57    60    62     9
   59    57    60    63     9
   57    60    63    64     9
   57    60    63    65     9
   57    60    63    66     9
   61    60    63    64     9
   61    60    63    65     9
   61    60    63    66     9
   62    60    63    64     9
   62    60    63    65     9
   62    60    63    66     9
   60    63    66    67     9
   60    63    66    68     9
   60    63    66    69     9
   64    63    66    67     9
   64    63    66    68     9
   64    63    66    69     9
   65    63    66    67     9
   65    63    66    68     9
   65    63    66    69     9
   63    66    69    70     9
   63    66    69    71     9
   63    66    69    72     9
   67    66    69    70     9
   67    66    69    71     9
   67    66    69    72     9
   68    66    69    70     9
   68    66    69    71     9
   68    66    69    72     9
   66    69    72    73     9
   66    69    72    74     9
   66    69    72    75     9
   70    69    72    73     9
   70    69    72    74     9
   70    69    72    75     9
   71    69    72    73     9
   71    69    72    74     9
   71    69    72    75     9
   69    72    75    76     9
   69    72    75    77     9
   69    72    75    78     9
   73    72    75    76     9
   73    72    75    77     9
   73    72    75    78     9
   74    72    75    76     9
   74    72    75    77     9
   74    72    75    78     9
   72    75    78    79     9
   72    75    78    80     9
   72    75    78    81     9
   76    75    78    79     9
   76    75    78    80     9
   76    75    78    81     9
   77    75    78    79     9
   77    75    78    80     9
   77    75    78    81     9
   33    82    85    86     9
   33    82    85    87     9
   33    82    85    88     9
   83    82    85    86     9
   83    82    85    87     9
   83    82    85    88     9
   84    82    85    86     9
   84    82    85    87     9
   84    82    85    88     9
   82    85    88    89     9
   82    85    88    90     9
   82    85    88    91     9
   86    85    88    89     9
   86    85    88    90     9
   86    85    88    91     9
   87    85    88    89     9
   87    85    88    90     9
   87    85    88    91     9
   85    88    91    92     9
   85    88    91    93     9
   85    88    91    94     9
   89    88    91    92     9
   89    88    91    93     9
   89    88    91    94     9
   90    88    91    92     9
   90    88    91    93     9
   90    88    91    94     9
   88    91    94    95     9
   88    91    94    96     9
   88    91    94    97     9
   92    91    94    95     9
   92    91    94    96     9
   92    91    94    97     9
   93    91    94    95     9
   93    91    94    96     9
   93    91    94    97     9
   91    94    97    98     9
   91    94    97    99     9
   91    94    97   100     9
   95    94    97    98     9
   95    94    97    99     9
   95    94    97   100     9
   96    94    97    98     9
   96    94    97    99     9
   96    94    97   100     9
   94    97   100   101     9
   94    97   100   102     9
   94    97   100   103     9
   98    97   100   101     9
   98    97   100   102     9
   98    97   100   103     9
   99    97   100   101     9
   99    97   100   102     9
   99    97   100   103     9
   97   100   103   104     9
   97   100   103   105     9
   97   100   103   106     9
  101   100   103   104     9
  101   100   103   105     9
  101   100   103   106     9
  102   100   103   104     9
  102   100   103   105     9
  102   100   103   106     9
  100   103   106   107     9
  100   103   106   108     9
  100   103   106   109     9
  104   103   106   107     9
  104   103   106   108     9
  104   103   106   109     9
  105   103   106   107     9
  105   103   106   108     9
  105   103   106   109     9
  103   106   109   110     9
  103   106   109   111     9
  103   106   109   112     9
  107   106   109   110     9
  107   106   109   111     9
  107   106   109   112     9
  108   106   109   110     9
  108   106   109   111     9
  108   106   109   112     9
  106   109   112   113     9
  106   109   112   114     9
  106   109   112   115     9
  110   109   112   113     9
  110   109   112   114     9
  110   109   112   115     9
  111   109   112   113     9
  111   109   112   114     9
  111   109   112   115     9
  109   112   115   116     9
  109   112   115   117     9
  109   112   115   118     9
  113   112   115   116     9
  113   112   115   117     9
  113   112   115   118     9
  114   112   115   116     9
  114   112   115   117     9
  114   112   115   118     9
  112   115   118   119     9
  112   115   118   120     9
  112   115   118   121     9
  116   115   118   119     9
  116   115   118   120     9
  116   115   118   121     9
  117   115   118   119     9
  117   115   118   120     9
  117   115   118   121     9
  115   118   121   122     9
  115   118   121   123     9
  115   118   121   124     9
  119   118   121   122     9
  119   118   121   123     9
  119   118   121   124     9
  120   118   121   122     9
  120   118   121   123     9
  120   118   121   124     9
  118   121   124   125     9
  118   121   124   126     9
  118   121   124   127     9
  122   121   124   125     9
  122   121   124   126     9
  122   121   124   127     9
  123   121   124   125     9
  123   121   124   126     9
  123   121   124   127     9
  121   124   127   128     9
  121   124   127   129     9
  121   124   127   130     9
  125   124   127   128     9
  125   124   127   129     9
  125   124   127   130     9
  126   124   127   128     9
  126   124   127   129     9
  126   124   127   130     9

[ dihedrals ]
; ai	aj	ak	al	funct	q0	cq
   22    21    24    23     2

#ifdef POSRES
[ position_restraints ]
   11     1     0.0             0.0            POSRES_FC_LIPID
#endif

#ifdef DIHRES
[ dihedral_restraints ]
   16    27    19    21     1   -120.0      2.5       DIHRES_FC
   30    31    33    82     1      0.0      0.0       DIHRES_FC
   50    53    55    57     1      0.0      0.0       DIHRES_FC
#endif
