;;
;; Generated by CHARMM-GUI FF-Converter
;;
;; Correspondance:
;; jul316@lehigh.edu or wonpil@lehigh.edu
;;
;; GROMACS topology file for PLEPEP
;;


[ moleculetype ]
; name	nrexcl
PLEPEP	     3

[ atoms ]
; nr	type	resnr	residu	atom	cgnr	charge	mass
     1       NH3L     31   PLEPEP      N      1    -0.300000    14.0070   ; qtot -0.300
     2        HCL     31   PLEPEP    HN1      2     0.330000     1.0080   ; qtot  0.030
     3        HCL     31   PLEPEP    HN2      3     0.330000     1.0080   ; qtot  0.360
     4        HCL     31   PLEPEP    HN3      4     0.330000     1.0080   ; qtot  0.690
     5       CTL2     31   PLEPEP    C12      5     0.130000    12.0110   ; qtot  0.820
     6       HAL2     31   PLEPEP   H12A      6     0.090000     1.0080   ; qtot  0.910
     7       HAL2     31   PLEPEP   H12B      7     0.090000     1.0080   ; qtot  1.000
     8       CTL2     31   PLEPEP    C11      8    -0.080000    12.0110   ; qtot  0.920
     9       HAL2     31   PLEPEP   H11A      9     0.090000     1.0080   ; qtot  1.010
    10       HAL2     31   PLEPEP   H11B     10     0.090000     1.0080   ; qtot  1.100
    11         PL     31   PLEPEP      P     11     1.500000    30.9740   ; qtot  2.600
    12        O2L     31   PLEPEP    O13     12    -0.780000    15.9994   ; qtot  1.820
    13        O2L     31   PLEPEP    O14     13    -0.780000    15.9994   ; qtot  1.040
    14       OSLP     31   PLEPEP    O12     14    -0.570000    15.9994   ; qtot  0.470
    15       OSLP     31   PLEPEP    O11     15    -0.570000    15.9994   ; qtot -0.100
    16       CTL2     31   PLEPEP     C1     16    -0.080000    12.0110   ; qtot -0.180
    17       HAL2     31   PLEPEP     HA     17     0.090000     1.0080   ; qtot -0.090
    18       HAL2     31   PLEPEP     HB     18     0.090000     1.0080   ; qtot  0.000
    19       CTL1     31   PLEPEP     C2     19     0.170000    12.0110   ; qtot  0.170
    20       HAL1     31   PLEPEP     HS     20     0.090000     1.0080   ; qtot  0.260
    21        OSL     31   PLEPEP    O21     21    -0.490000    15.9994   ; qtot -0.230
    22         CL     31   PLEPEP    C21     22     0.900000    12.0110   ; qtot  0.670
    23        OBL     31   PLEPEP    O22     23    -0.630000    15.9994   ; qtot  0.040
    24       CTL2     31   PLEPEP    C22     24    -0.220000    12.0110   ; qtot -0.180
    25       HAL2     31   PLEPEP    H2R     25     0.090000     1.0080   ; qtot -0.090
    26       HAL2     31   PLEPEP    H2S     26     0.090000     1.0080   ; qtot  0.000
    27       CTL2     31   PLEPEP     C3     27     0.080000    12.0110   ; qtot  0.080
    28       HAL2     31   PLEPEP     HX     28     0.020000     1.0080   ; qtot  0.100
    29       HAL2     31   PLEPEP     HY     29     0.020000     1.0080   ; qtot  0.120
    30      OG301     31   PLEPEP    O31     30    -0.560000    15.9994   ; qtot -0.440
    31       CEL1     31   PLEPEP    C31     31     0.420000    12.0110   ; qtot -0.020
    32       HEL1     31   PLEPEP    H1X     32     0.020000     1.0080   ; qtot  0.000
    33       CEL1     31   PLEPEP    C32     33    -0.150000    12.0110   ; qtot -0.150
    34       HEL1     31   PLEPEP    H2X     34     0.150000     1.0080   ; qtot  0.000
    35       CTL2     31   PLEPEP    C23     35    -0.180000    12.0110   ; qtot -0.180
    36       HAL2     31   PLEPEP    H3R     36     0.090000     1.0080   ; qtot -0.090
    37       HAL2     31   PLEPEP    H3S     37     0.090000     1.0080   ; qtot  0.000
    38       CTL2     31   PLEPEP    C24     38    -0.180000    12.0110   ; qtot -0.180
    39       HAL2     31   PLEPEP    H4R     39     0.090000     1.0080   ; qtot -0.090
    40       HAL2     31   PLEPEP    H4S     40     0.090000     1.0080   ; qtot  0.000
    41       CEL1     31   PLEPEP    C25     41    -0.150000    12.0110   ; qtot -0.150
    42       HEL1     31   PLEPEP    H5R     42     0.150000     1.0080   ; qtot  0.000
    43       CEL1     31   PLEPEP    C26     43    -0.150000    12.0110   ; qtot -0.150
    44       HEL1     31   PLEPEP    H6R     44     0.150000     1.0080   ; qtot  0.000
    45       CTL2     31   PLEPEP    C27     45    -0.180000    12.0110   ; qtot -0.180
    46       HAL2     31   PLEPEP    H7R     46     0.090000     1.0080   ; qtot -0.090
    47       HAL2     31   PLEPEP    H7S     47     0.090000     1.0080   ; qtot  0.000
    48       CEL1     31   PLEPEP    C28     48    -0.150000    12.0110   ; qtot -0.150
    49       HEL1     31   PLEPEP    H8R     49     0.150000     1.0080   ; qtot  0.000
    50       CEL1     31   PLEPEP    C29     50    -0.150000    12.0110   ; qtot -0.150
    51       HEL1     31   PLEPEP    H9R     51     0.150000     1.0080   ; qtot  0.000
    52       CTL2     31   PLEPEP   C210     52    -0.180000    12.0110   ; qtot -0.180
    53       HAL2     31   PLEPEP   H10R     53     0.090000     1.0080   ; qtot -0.090
    54       HAL2     31   PLEPEP   H10S     54     0.090000     1.0080   ; qtot  0.000
    55       CEL1     31   PLEPEP   C211     55    -0.150000    12.0110   ; qtot -0.150
    56       HEL1     31   PLEPEP   H11R     56     0.150000     1.0080   ; qtot  0.000
    57       CEL1     31   PLEPEP   C212     57    -0.150000    12.0110   ; qtot -0.150
    58       HEL1     31   PLEPEP   H12R     58     0.150000     1.0080   ; qtot  0.000
    59       CTL2     31   PLEPEP   C213     59    -0.180000    12.0110   ; qtot -0.180
    60       HAL2     31   PLEPEP   H13R     60     0.090000     1.0080   ; qtot -0.090
    61       HAL2     31   PLEPEP   H13S     61     0.090000     1.0080   ; qtot  0.000
    62       CEL1     31   PLEPEP   C214     62    -0.150000    12.0110   ; qtot -0.150
    63       HEL1     31   PLEPEP   H14R     63     0.150000     1.0080   ; qtot  0.000
    64       CEL1     31   PLEPEP   C215     64    -0.150000    12.0110   ; qtot -0.150
    65       HEL1     31   PLEPEP   H15R     65     0.150000     1.0080   ; qtot  0.000
    66       CTL2     31   PLEPEP   C216     66    -0.180000    12.0110   ; qtot -0.180
    67       HAL2     31   PLEPEP   H16R     67     0.090000     1.0080   ; qtot -0.090
    68       HAL2     31   PLEPEP   H16S     68     0.090000     1.0080   ; qtot  0.000
    69       CEL1     31   PLEPEP   C217     69    -0.150000    12.0110   ; qtot -0.150
    70       HEL1     31   PLEPEP   H17R     70     0.150000     1.0080   ; qtot  0.000
    71       CEL1     31   PLEPEP   C218     71    -0.150000    12.0110   ; qtot -0.150
    72       HEL1     31   PLEPEP   H18R     72     0.150000     1.0080   ; qtot  0.000
    73       CTL2     31   PLEPEP   C219     73    -0.180000    12.0110   ; qtot -0.180
    74       HAL2     31   PLEPEP   H19R     74     0.090000     1.0080   ; qtot -0.090
    75       HAL2     31   PLEPEP   H19S     75     0.090000     1.0080   ; qtot  0.000
    76       CTL3     31   PLEPEP   C220     76    -0.270000    12.0110   ; qtot -0.270
    77       HAL3     31   PLEPEP   H20R     77     0.090000     1.0080   ; qtot -0.180
    78       HAL3     31   PLEPEP   H20S     78     0.090000     1.0080   ; qtot -0.090
    79       HAL3     31   PLEPEP   H20T     79     0.090000     1.0080   ; qtot  0.000
    80       CTL2     31   PLEPEP    C33     80    -0.180000    12.0110   ; qtot -0.180
    81       HAL2     31   PLEPEP    H3X     81     0.090000     1.0080   ; qtot -0.090
    82       HAL2     31   PLEPEP    H3Y     82     0.090000     1.0080   ; qtot  0.000
    83       CTL2     31   PLEPEP    C34     83    -0.180000    12.0110   ; qtot -0.180
    84       HAL2     31   PLEPEP    H4X     84     0.090000     1.0080   ; qtot -0.090
    85       HAL2     31   PLEPEP    H4Y     85     0.090000     1.0080   ; qtot  0.000
    86       CTL2     31   PLEPEP    C35     86    -0.180000    12.0110   ; qtot -0.180
    87       HAL2     31   PLEPEP    H5X     87     0.090000     1.0080   ; qtot -0.090
    88       HAL2     31   PLEPEP    H5Y     88     0.090000     1.0080   ; qtot  0.000
    89       CTL2     31   PLEPEP    C36     89    -0.180000    12.0110   ; qtot -0.180
    90       HAL2     31   PLEPEP    H6X     90     0.090000     1.0080   ; qtot -0.090
    91       HAL2     31   PLEPEP    H6Y     91     0.090000     1.0080   ; qtot  0.000
    92       CTL2     31   PLEPEP    C37     92    -0.180000    12.0110   ; qtot -0.180
    93       HAL2     31   PLEPEP    H7X     93     0.090000     1.0080   ; qtot -0.090
    94       HAL2     31   PLEPEP    H7Y     94     0.090000     1.0080   ; qtot  0.000
    95       CTL2     31   PLEPEP    C38     95    -0.180000    12.0110   ; qtot -0.180
    96       HAL2     31   PLEPEP    H8X     96     0.090000     1.0080   ; qtot -0.090
    97       HAL2     31   PLEPEP    H8Y     97     0.090000     1.0080   ; qtot  0.000
    98       CTL2     31   PLEPEP    C39     98    -0.180000    12.0110   ; qtot -0.180
    99       HAL2     31   PLEPEP    H9X     99     0.090000     1.0080   ; qtot -0.090
   100       HAL2     31   PLEPEP    H9Y    100     0.090000     1.0080   ; qtot  0.000
   101       CTL2     31   PLEPEP   C310    101    -0.180000    12.0110   ; qtot -0.180
   102       HAL2     31   PLEPEP   H10X    102     0.090000     1.0080   ; qtot -0.090
   103       HAL2     31   PLEPEP   H10Y    103     0.090000     1.0080   ; qtot  0.000
   104       CTL2     31   PLEPEP   C311    104    -0.180000    12.0110   ; qtot -0.180
   105       HAL2     31   PLEPEP   H11X    105     0.090000     1.0080   ; qtot -0.090
   106       HAL2     31   PLEPEP   H11Y    106     0.090000     1.0080   ; qtot  0.000
   107       CTL2     31   PLEPEP   C312    107    -0.180000    12.0110   ; qtot -0.180
   108       HAL2     31   PLEPEP   H12X    108     0.090000     1.0080   ; qtot -0.090
   109       HAL2     31   PLEPEP   H12Y    109     0.090000     1.0080   ; qtot  0.000
   110       CEL1     31   PLEPEP   C313    110    -0.150000    12.0110   ; qtot -0.150
   111       HEL1     31   PLEPEP   H13X    111     0.150000     1.0080   ; qtot  0.000
   112       CEL1     31   PLEPEP   C314    112    -0.150000    12.0110   ; qtot -0.150
   113       HEL1     31   PLEPEP   H14X    113     0.150000     1.0080   ; qtot  0.000
   114       CTL2     31   PLEPEP   C315    114    -0.180000    12.0110   ; qtot -0.180
   115       HAL2     31   PLEPEP   H15X    115     0.090000     1.0080   ; qtot -0.090
   116       HAL2     31   PLEPEP   H15Y    116     0.090000     1.0080   ; qtot  0.000
   117       CTL2     31   PLEPEP   C316    117    -0.180000    12.0110   ; qtot -0.180
   118       HAL2     31   PLEPEP   H16X    118     0.090000     1.0080   ; qtot -0.090
   119       HAL2     31   PLEPEP   H16Y    119     0.090000     1.0080   ; qtot  0.000
   120       CTL2     31   PLEPEP   C317    120    -0.180000    12.0110   ; qtot -0.180
   121       HAL2     31   PLEPEP   H17X    121     0.090000     1.0080   ; qtot -0.090
   122       HAL2     31   PLEPEP   H17Y    122     0.090000     1.0080   ; qtot  0.000
   123       CTL2     31   PLEPEP   C318    123    -0.180000    12.0110   ; qtot -0.180
   124       HAL2     31   PLEPEP   H18X    124     0.090000     1.0080   ; qtot -0.090
   125       HAL2     31   PLEPEP   H18Y    125     0.090000     1.0080   ; qtot  0.000
   126       CTL2     31   PLEPEP   C319    126    -0.180000    12.0110   ; qtot -0.180
   127       HAL2     31   PLEPEP   H19X    127     0.090000     1.0080   ; qtot -0.090
   128       HAL2     31   PLEPEP   H19Y    128     0.090000     1.0080   ; qtot  0.000
   129       CTL2     31   PLEPEP   C320    129    -0.270000    12.0110   ; qtot -0.270
   130       HAL2     31   PLEPEP   H20X    130     0.090000     1.0080   ; qtot -0.180
   131       HAL2     31   PLEPEP   H20Y    131     0.090000     1.0080   ; qtot -0.090
   132       HAL2     31   PLEPEP   H20Z    132     0.090000     1.0080   ; qtot  0.000

[ bonds ]
; ai	aj	funct	b0	Kb
    1     2     1
    1     3     1
    1     4     1
    1     5     1
    5     6     1
    5     7     1
    5     8     1
    8     9     1
    8    10     1
    8    14     1
   11    12     1
   11    13     1
   14    11     1
   11    15     1
   16    15     1
   16    17     1
   16    18     1
   16    19     1
   19    20     1
   19    21     1
   19    27     1
   21    22     1
   22    23     1
   22    24     1
   24    25     1
   24    26     1
   24    35     1
   27    28     1
   27    29     1
   27    30     1
   30    31     1
   31    32     1
   31    33     1
   33    34     1
   33    80     1
   35    36     1
   35    37     1
   35    38     1
   38    39     1
   38    40     1
   38    41     1
   41    42     1
   41    43     1
   43    44     1
   43    45     1
   45    46     1
   45    47     1
   45    48     1
   48    49     1
   48    50     1
   50    51     1
   50    52     1
   52    53     1
   52    54     1
   52    55     1
   55    56     1
   55    57     1
   57    58     1
   57    59     1
   59    60     1
   59    61     1
   59    62     1
   62    63     1
   62    64     1
   64    65     1
   64    66     1
   66    67     1
   66    68     1
   66    69     1
   69    70     1
   69    71     1
   71    72     1
   71    73     1
   73    74     1
   73    75     1
   73    76     1
   76    77     1
   76    78     1
   76    79     1
   80    81     1
   80    82     1
   80    83     1
   83    84     1
   83    85     1
   83    86     1
   86    87     1
   86    88     1
   86    89     1
   89    90     1
   89    91     1
   89    92     1
   92    93     1
   92    94     1
   92    95     1
   95    96     1
   95    97     1
   95    98     1
   98    99     1
   98   100     1
   98   101     1
  101   102     1
  101   103     1
  101   104     1
  104   105     1
  104   106     1
  104   107     1
  107   108     1
  107   109     1
  107   110     1
  110   111     1
  110   112     1
  112   113     1
  112   114     1
  114   115     1
  114   116     1
  114   117     1
  117   118     1
  117   119     1
  117   120     1
  120   121     1
  120   122     1
  120   123     1
  123   124     1
  123   125     1
  123   126     1
  126   127     1
  126   128     1
  126   129     1
  129   130     1
  129   131     1
  129   132     1

[ pairs ]
; ai	aj	funct	c6	c12 or
; ai	aj	funct	fudgeQQ	q1	q2	c6	c12
    1     9     1
    1    10     1
    1    14     1
    2     6     1
    2     7     1
    2     8     1
    3     6     1
    3     7     1
    3     8     1
    4     6     1
    4     7     1
    4     8     1
    5    11     1
    6     9     1
    6    10     1
    6    14     1
    7     9     1
    7    10     1
    7    14     1
    8    12     1
    8    13     1
    8    15     1
    9    11     1
   10    11     1
   11    17     1
   11    18     1
   11    19     1
   12    16     1
   13    16     1
   14    16     1
   15    20     1
   15    21     1
   15    27     1
   16    22     1
   16    28     1
   16    29     1
   16    30     1
   17    20     1
   17    21     1
   17    27     1
   18    20     1
   18    21     1
   18    27     1
   19    23     1
   19    24     1
   19    31     1
   20    22     1
   20    28     1
   20    29     1
   20    30     1
   21    25     1
   21    26     1
   21    28     1
   21    29     1
   21    30     1
   21    35     1
   22    27     1
   22    36     1
   22    37     1
   22    38     1
   23    25     1
   23    26     1
   23    35     1
   24    39     1
   24    40     1
   24    41     1
   25    36     1
   25    37     1
   25    38     1
   26    36     1
   26    37     1
   26    38     1
   27    32     1
   27    33     1
   28    31     1
   29    31     1
   30    34     1
   30    80     1
   31    81     1
   31    82     1
   31    83     1
   32    34     1
   32    80     1
   33    84     1
   33    85     1
   33    86     1
   34    81     1
   34    82     1
   34    83     1
   35    42     1
   35    43     1
   36    39     1
   36    40     1
   36    41     1
   37    39     1
   37    40     1
   37    41     1
   38    44     1
   38    45     1
   39    42     1
   39    43     1
   40    42     1
   40    43     1
   41    46     1
   41    47     1
   41    48     1
   42    44     1
   42    45     1
   43    49     1
   43    50     1
   44    46     1
   44    47     1
   44    48     1
   45    51     1
   45    52     1
   46    49     1
   46    50     1
   47    49     1
   47    50     1
   48    53     1
   48    54     1
   48    55     1
   49    51     1
   49    52     1
   50    56     1
   50    57     1
   51    53     1
   51    54     1
   51    55     1
   52    58     1
   52    59     1
   53    56     1
   53    57     1
   54    56     1
   54    57     1
   55    60     1
   55    61     1
   55    62     1
   56    58     1
   56    59     1
   57    63     1
   57    64     1
   58    60     1
   58    61     1
   58    62     1
   59    65     1
   59    66     1
   60    63     1
   60    64     1
   61    63     1
   61    64     1
   62    67     1
   62    68     1
   62    69     1
   63    65     1
   63    66     1
   64    70     1
   64    71     1
   65    67     1
   65    68     1
   65    69     1
   66    72     1
   66    73     1
   67    70     1
   67    71     1
   68    70     1
   68    71     1
   69    74     1
   69    75     1
   69    76     1
   70    72     1
   70    73     1
   71    77     1
   71    78     1
   71    79     1
   72    74     1
   72    75     1
   72    76     1
   74    77     1
   74    78     1
   74    79     1
   75    77     1
   75    78     1
   75    79     1
   80    87     1
   80    88     1
   80    89     1
   81    84     1
   81    85     1
   81    86     1
   82    84     1
   82    85     1
   82    86     1
   83    90     1
   83    91     1
   83    92     1
   84    87     1
   84    88     1
   84    89     1
   85    87     1
   85    88     1
   85    89     1
   86    93     1
   86    94     1
   86    95     1
   87    90     1
   87    91     1
   87    92     1
   88    90     1
   88    91     1
   88    92     1
   89    96     1
   89    97     1
   89    98     1
   90    93     1
   90    94     1
   90    95     1
   91    93     1
   91    94     1
   91    95     1
   92    99     1
   92   100     1
   92   101     1
   93    96     1
   93    97     1
   93    98     1
   94    96     1
   94    97     1
   94    98     1
   95   102     1
   95   103     1
   95   104     1
   96    99     1
   96   100     1
   96   101     1
   97    99     1
   97   100     1
   97   101     1
   98   105     1
   98   106     1
   98   107     1
   99   102     1
   99   103     1
   99   104     1
  100   102     1
  100   103     1
  100   104     1
  101   108     1
  101   109     1
  101   110     1
  102   105     1
  102   106     1
  102   107     1
  103   105     1
  103   106     1
  103   107     1
  104   111     1
  104   112     1
  105   108     1
  105   109     1
  105   110     1
  106   108     1
  106   109     1
  106   110     1
  107   113     1
  107   114     1
  108   111     1
  108   112     1
  109   111     1
  109   112     1
  110   115     1
  110   116     1
  110   117     1
  111   113     1
  111   114     1
  112   118     1
  112   119     1
  112   120     1
  113   115     1
  113   116     1
  113   117     1
  114   121     1
  114   122     1
  114   123     1
  115   118     1
  115   119     1
  115   120     1
  116   118     1
  116   119     1
  116   120     1
  117   124     1
  117   125     1
  117   126     1
  118   121     1
  118   122     1
  118   123     1
  119   121     1
  119   122     1
  119   123     1
  120   127     1
  120   128     1
  120   129     1
  121   124     1
  121   125     1
  121   126     1
  122   124     1
  122   125     1
  122   126     1
  123   130     1
  123   131     1
  123   132     1
  124   127     1
  124   128     1
  124   129     1
  125   127     1
  125   128     1
  125   129     1
  127   130     1
  127   131     1
  127   132     1
  128   130     1
  128   131     1
  128   132     1

[ angles ] 
; ai	aj	ak	funct	th0	cth	S0	Kub
    2     1     3     5
    2     1     4     5
    2     1     5     5
    3     1     4     5
    3     1     5     5
    4     1     5     5
    1     5     6     5
    1     5     7     5
    1     5     8     5
    6     5     7     5
    6     5     8     5
    7     5     8     5
    5     8     9     5
    5     8    10     5
    5     8    14     5
    9     8    10     5
    9     8    14     5
   10     8    14     5
   12    11    13     5
   12    11    14     5
   12    11    15     5
   13    11    14     5
   13    11    15     5
   14    11    15     5
    8    14    11     5
   11    15    16     5
   15    16    17     5
   15    16    18     5
   15    16    19     5
   17    16    18     5
   17    16    19     5
   18    16    19     5
   16    19    20     5
   16    19    21     5
   16    19    27     5
   20    19    21     5
   20    19    27     5
   21    19    27     5
   19    21    22     5
   21    22    23     5
   21    22    24     5
   23    22    24     5
   22    24    25     5
   22    24    26     5
   22    24    35     5
   25    24    26     5
   25    24    35     5
   26    24    35     5
   19    27    28     5
   19    27    29     5
   19    27    30     5
   28    27    29     5
   28    27    30     5
   29    27    30     5
   27    30    31     5
   30    31    32     5
   30    31    33     5
   32    31    33     5
   31    33    34     5
   31    33    80     5
   34    33    80     5
   24    35    36     5
   24    35    37     5
   24    35    38     5
   36    35    37     5
   36    35    38     5
   37    35    38     5
   35    38    39     5
   35    38    40     5
   35    38    41     5
   39    38    40     5
   39    38    41     5
   40    38    41     5
   38    41    42     5
   38    41    43     5
   42    41    43     5
   41    43    44     5
   41    43    45     5
   44    43    45     5
   43    45    46     5
   43    45    47     5
   43    45    48     5
   46    45    47     5
   46    45    48     5
   47    45    48     5
   45    48    49     5
   45    48    50     5
   49    48    50     5
   48    50    51     5
   48    50    52     5
   51    50    52     5
   50    52    53     5
   50    52    54     5
   50    52    55     5
   53    52    54     5
   53    52    55     5
   54    52    55     5
   52    55    56     5
   52    55    57     5
   56    55    57     5
   55    57    58     5
   55    57    59     5
   58    57    59     5
   57    59    60     5
   57    59    61     5
   57    59    62     5
   60    59    61     5
   60    59    62     5
   61    59    62     5
   59    62    63     5
   59    62    64     5
   63    62    64     5
   62    64    65     5
   62    64    66     5
   65    64    66     5
   64    66    67     5
   64    66    68     5
   64    66    69     5
   67    66    68     5
   67    66    69     5
   68    66    69     5
   66    69    70     5
   66    69    71     5
   70    69    71     5
   69    71    72     5
   69    71    73     5
   72    71    73     5
   71    73    74     5
   71    73    75     5
   71    73    76     5
   74    73    75     5
   74    73    76     5
   75    73    76     5
   73    76    77     5
   73    76    78     5
   73    76    79     5
   77    76    78     5
   77    76    79     5
   78    76    79     5
   33    80    81     5
   33    80    82     5
   33    80    83     5
   81    80    82     5
   81    80    83     5
   82    80    83     5
   80    83    84     5
   80    83    85     5
   80    83    86     5
   84    83    85     5
   84    83    86     5
   85    83    86     5
   83    86    87     5
   83    86    88     5
   83    86    89     5
   87    86    88     5
   87    86    89     5
   88    86    89     5
   86    89    90     5
   86    89    91     5
   86    89    92     5
   90    89    91     5
   90    89    92     5
   91    89    92     5
   89    92    93     5
   89    92    94     5
   89    92    95     5
   93    92    94     5
   93    92    95     5
   94    92    95     5
   92    95    96     5
   92    95    97     5
   92    95    98     5
   96    95    97     5
   96    95    98     5
   97    95    98     5
   95    98    99     5
   95    98   100     5
   95    98   101     5
   99    98   100     5
   99    98   101     5
  100    98   101     5
   98   101   102     5
   98   101   103     5
   98   101   104     5
  102   101   103     5
  102   101   104     5
  103   101   104     5
  101   104   105     5
  101   104   106     5
  101   104   107     5
  105   104   106     5
  105   104   107     5
  106   104   107     5
  104   107   108     5
  104   107   109     5
  104   107   110     5
  108   107   109     5
  108   107   110     5
  109   107   110     5
  107   110   111     5
  107   110   112     5
  111   110   112     5
  110   112   113     5
  110   112   114     5
  113   112   114     5
  112   114   115     5
  112   114   116     5
  112   114   117     5
  115   114   116     5
  115   114   117     5
  116   114   117     5
  114   117   118     5
  114   117   119     5
  114   117   120     5
  118   117   119     5
  118   117   120     5
  119   117   120     5
  117   120   121     5
  117   120   122     5
  117   120   123     5
  121   120   122     5
  121   120   123     5
  122   120   123     5
  120   123   124     5
  120   123   125     5
  120   123   126     5
  124   123   125     5
  124   123   126     5
  125   123   126     5
  123   126   127     5
  123   126   128     5
  123   126   129     5
  127   126   128     5
  127   126   129     5
  128   126   129     5
  126   129   130     5
  126   129   131     5
  126   129   132     5
  130   129   131     5
  130   129   132     5
  131   129   132     5

[ dihedrals ]
; ai	aj	ak	al	funct	phi0	cp	mult
    2     1     5     6     9
    2     1     5     7     9
    2     1     5     8     9
    3     1     5     6     9
    3     1     5     7     9
    3     1     5     8     9
    4     1     5     6     9
    4     1     5     7     9
    4     1     5     8     9
    1     5     8     9     9
    1     5     8    10     9
    1     5     8    14     9
    6     5     8     9     9
    6     5     8    10     9
    6     5     8    14     9
    7     5     8     9     9
    7     5     8    10     9
    7     5     8    14     9
    5     8    14    11     9
    9     8    14    11     9
   10     8    14    11     9
   12    11    15    16     9
   13    11    15    16     9
   14    11    15    16     9
    8    14    11    12     9
    8    14    11    13     9
    8    14    11    15     9
   11    15    16    17     9
   11    15    16    18     9
   11    15    16    19     9
   15    16    19    20     9
   15    16    19    21     9
   15    16    19    27     9
   17    16    19    20     9
   17    16    19    21     9
   17    16    19    27     9
   18    16    19    20     9
   18    16    19    21     9
   18    16    19    27     9
   16    19    21    22     9
   20    19    21    22     9
   16    19    27    28     9
   16    19    27    29     9
   16    19    27    30     9
   20    19    27    28     9
   20    19    27    29     9
   20    19    27    30     9
   21    19    27    28     9
   21    19    27    29     9
   21    19    27    30     9
   22    21    19    27     9
   19    21    22    23     9
   19    21    22    24     9
   21    22    24    25     9
   21    22    24    26     9
   21    22    24    35     9
   23    22    24    25     9
   23    22    24    26     9
   23    22    24    35     9
   22    24    35    36     9
   22    24    35    37     9
   22    24    35    38     9
   25    24    35    36     9
   25    24    35    37     9
   25    24    35    38     9
   26    24    35    36     9
   26    24    35    37     9
   26    24    35    38     9
   19    27    30    31     9
   28    27    30    31     9
   29    27    30    31     9
   27    30    31    32     9
   27    30    31    33     9
   30    31    33    34     9
   30    31    33    80     9
   32    31    33    34     9
   32    31    33    80     9
   31    33    80    81     9
   31    33    80    82     9
   31    33    80    83     9
   34    33    80    81     9
   34    33    80    82     9
   34    33    80    83     9
   24    35    38    39     9
   24    35    38    40     9
   24    35    38    41     9
   36    35    38    39     9
   36    35    38    40     9
   36    35    38    41     9
   37    35    38    39     9
   37    35    38    40     9
   37    35    38    41     9
   35    38    41    42     9
   35    38    41    43     9
   39    38    41    42     9
   39    38    41    43     9
   40    38    41    42     9
   40    38    41    43     9
   38    41    43    44     9
   38    41    43    45     9
   42    41    43    44     9
   42    41    43    45     9
   41    43    45    46     9
   41    43    45    47     9
   41    43    45    48     9
   44    43    45    46     9
   44    43    45    47     9
   44    43    45    48     9
   43    45    48    49     9
   43    45    48    50     9
   46    45    48    49     9
   46    45    48    50     9
   47    45    48    49     9
   47    45    48    50     9
   45    48    50    51     9
   45    48    50    52     9
   49    48    50    51     9
   49    48    50    52     9
   48    50    52    53     9
   48    50    52    54     9
   48    50    52    55     9
   51    50    52    53     9
   51    50    52    54     9
   51    50    52    55     9
   50    52    55    56     9
   50    52    55    57     9
   53    52    55    56     9
   53    52    55    57     9
   54    52    55    56     9
   54    52    55    57     9
   52    55    57    58     9
   52    55    57    59     9
   56    55    57    58     9
   56    55    57    59     9
   55    57    59    60     9
   55    57    59    61     9
   55    57    59    62     9
   58    57    59    60     9
   58    57    59    61     9
   58    57    59    62     9
   57    59    62    63     9
   57    59    62    64     9
   60    59    62    63     9
   60    59    62    64     9
   61    59    62    63     9
   61    59    62    64     9
   59    62    64    65     9
   59    62    64    66     9
   63    62    64    65     9
   63    62    64    66     9
   62    64    66    67     9
   62    64    66    68     9
   62    64    66    69     9
   65    64    66    67     9
   65    64    66    68     9
   65    64    66    69     9
   64    66    69    70     9
   64    66    69    71     9
   67    66    69    70     9
   67    66    69    71     9
   68    66    69    70     9
   68    66    69    71     9
   66    69    71    72     9
   66    69    71    73     9
   70    69    71    72     9
   70    69    71    73     9
   69    71    73    74     9
   69    71    73    75     9
   69    71    73    76     9
   72    71    73    74     9
   72    71    73    75     9
   72    71    73    76     9
   71    73    76    77     9
   71    73    76    78     9
   71    73    76    79     9
   74    73    76    77     9
   74    73    76    78     9
   74    73    76    79     9
   75    73    76    77     9
   75    73    76    78     9
   75    73    76    79     9
   33    80    83    84     9
   33    80    83    85     9
   33    80    83    86     9
   81    80    83    84     9
   81    80    83    85     9
   81    80    83    86     9
   82    80    83    84     9
   82    80    83    85     9
   82    80    83    86     9
   80    83    86    87     9
   80    83    86    88     9
   80    83    86    89     9
   84    83    86    87     9
   84    83    86    88     9
   84    83    86    89     9
   85    83    86    87     9
   85    83    86    88     9
   85    83    86    89     9
   83    86    89    90     9
   83    86    89    91     9
   83    86    89    92     9
   87    86    89    90     9
   87    86    89    91     9
   87    86    89    92     9
   88    86    89    90     9
   88    86    89    91     9
   88    86    89    92     9
   86    89    92    93     9
   86    89    92    94     9
   86    89    92    95     9
   90    89    92    93     9
   90    89    92    94     9
   90    89    92    95     9
   91    89    92    93     9
   91    89    92    94     9
   91    89    92    95     9
   89    92    95    96     9
   89    92    95    97     9
   89    92    95    98     9
   93    92    95    96     9
   93    92    95    97     9
   93    92    95    98     9
   94    92    95    96     9
   94    92    95    97     9
   94    92    95    98     9
   92    95    98    99     9
   92    95    98   100     9
   92    95    98   101     9
   96    95    98    99     9
   96    95    98   100     9
   96    95    98   101     9
   97    95    98    99     9
   97    95    98   100     9
   97    95    98   101     9
   95    98   101   102     9
   95    98   101   103     9
   95    98   101   104     9
   99    98   101   102     9
   99    98   101   103     9
   99    98   101   104     9
  100    98   101   102     9
  100    98   101   103     9
  100    98   101   104     9
   98   101   104   105     9
   98   101   104   106     9
   98   101   104   107     9
  102   101   104   105     9
  102   101   104   106     9
  102   101   104   107     9
  103   101   104   105     9
  103   101   104   106     9
  103   101   104   107     9
  101   104   107   108     9
  101   104   107   109     9
  101   104   107   110     9
  105   104   107   108     9
  105   104   107   109     9
  105   104   107   110     9
  106   104   107   108     9
  106   104   107   109     9
  106   104   107   110     9
  104   107   110   111     9
  104   107   110   112     9
  108   107   110   111     9
  108   107   110   112     9
  109   107   110   111     9
  109   107   110   112     9
  107   110   112   113     9
  107   110   112   114     9
  111   110   112   113     9
  111   110   112   114     9
  110   112   114   115     9
  110   112   114   116     9
  110   112   114   117     9
  113   112   114   115     9
  113   112   114   116     9
  113   112   114   117     9
  112   114   117   118     9
  112   114   117   119     9
  112   114   117   120     9
  115   114   117   118     9
  115   114   117   119     9
  115   114   117   120     9
  116   114   117   118     9
  116   114   117   119     9
  116   114   117   120     9
  114   117   120   121     9
  114   117   120   122     9
  114   117   120   123     9
  118   117   120   121     9
  118   117   120   122     9
  118   117   120   123     9
  119   117   120   121     9
  119   117   120   122     9
  119   117   120   123     9
  117   120   123   124     9
  117   120   123   125     9
  117   120   123   126     9
  121   120   123   124     9
  121   120   123   125     9
  121   120   123   126     9
  122   120   123   124     9
  122   120   123   125     9
  122   120   123   126     9
  120   123   126   127     9
  120   123   126   128     9
  120   123   126   129     9
  124   123   126   127     9
  124   123   126   128     9
  124   123   126   129     9
  125   123   126   127     9
  125   123   126   128     9
  125   123   126   129     9
  123   126   129   130     9
  123   126   129   131     9
  123   126   129   132     9
  127   126   129   130     9
  127   126   129   131     9
  127   126   129   132     9
  128   126   129   130     9
  128   126   129   131     9
  128   126   129   132     9

[ dihedrals ]
; ai	aj	ak	al	funct	q0	cq
   22    21    24    23     2

#ifdef POSRES
[ position_restraints ]
   11     1     0.0             0.0            POSRES_FC_LIPID
#endif

#ifdef DIHRES
[ dihedral_restraints ]
   16    27    19    21     1   -120.0      2.5       DIHRES_FC
   30    31    33    80     1      0.0      0.0       DIHRES_FC
   38    41    43    45     1      0.0      0.0       DIHRES_FC
   45    48    50    52     1      0.0      0.0       DIHRES_FC
   52    55    57    59     1      0.0      0.0       DIHRES_FC
   59    62    64    66     1      0.0      0.0       DIHRES_FC
   66    69    71    73     1      0.0      0.0       DIHRES_FC
  107   110   112   114     1      0.0      0.0       DIHRES_FC
#endif
