;;
;; Generated by CHARMM-GUI FF-Converter
;;
;; Correspondance:
;; jul316@lehigh.edu or wonpil@lehigh.edu
;;
;; GROMACS topology file for POPP3
;;


[ moleculetype ]
; name	nrexcl
POPP3	     3

[ atoms ]
; nr	type	resnr	residu	atom	cgnr	charge	mass
     1         P4    170    POPP3     P2      1     1.340000    30.9740   ; qtot  1.340
     2        ON4    170    POPP3   OP22      2    -0.720000    15.9994   ; qtot  0.620
     3        HN4    170    POPP3   HO22      3     0.450000     1.0080   ; qtot  1.070
     4        ON3    170    POPP3   OP23      4    -0.860000    15.9994   ; qtot  0.210
     5        ON3    170    POPP3   OP24      5    -0.860000    15.9994   ; qtot -0.650
     6          P    170    POPP3     P1      6     1.700000    30.9740   ; qtot  1.050
     7        ON2    170    POPP3    O12      7    -0.630000    15.9994   ; qtot  0.420
     8        ON4    170    POPP3    O13      8    -0.630000    15.9994   ; qtot -0.210
     9        HN4    170    POPP3   HO13      9     0.450000     1.0080   ; qtot  0.240
    10        ON3    170    POPP3    O14     10    -0.720000    15.9994   ; qtot -0.480
    11        ON2    170    POPP3    O11     11    -0.620000    15.9994   ; qtot -1.100
    12       CTL2    170    POPP3     C1     12    -0.080000    12.0110   ; qtot -1.180
    13       HAL2    170    POPP3     HA     13     0.090000     1.0080   ; qtot -1.090
    14       HAL2    170    POPP3     HB     14     0.090000     1.0080   ; qtot -1.000
    15       CTL1    170    POPP3     C2     15     0.170000    12.0110   ; qtot -0.830
    16       HAL1    170    POPP3     HS     16     0.090000     1.0080   ; qtot -0.740
    17        OSL    170    POPP3    O21     17    -0.490000    15.9994   ; qtot -1.230
    18         CL    170    POPP3    C21     18     0.900000    12.0110   ; qtot -0.330
    19        OBL    170    POPP3    O22     19    -0.630000    15.9994   ; qtot -0.960
    20       CTL2    170    POPP3    C22     20    -0.220000    12.0110   ; qtot -1.180
    21       HAL2    170    POPP3    H2R     21     0.090000     1.0080   ; qtot -1.090
    22       HAL2    170    POPP3    H2S     22     0.090000     1.0080   ; qtot -1.000
    23       CTL2    170    POPP3     C3     23     0.080000    12.0110   ; qtot -0.920
    24       HAL2    170    POPP3     HX     24     0.090000     1.0080   ; qtot -0.830
    25       HAL2    170    POPP3     HY     25     0.090000     1.0080   ; qtot -0.740
    26        OSL    170    POPP3    O31     26    -0.490000    15.9994   ; qtot -1.230
    27         CL    170    POPP3    C31     27     0.900000    12.0110   ; qtot -0.330
    28        OBL    170    POPP3    O32     28    -0.630000    15.9994   ; qtot -0.960
    29       CTL2    170    POPP3    C32     29    -0.220000    12.0110   ; qtot -1.180
    30       HAL2    170    POPP3    H2X     30     0.090000     1.0080   ; qtot -1.090
    31       HAL2    170    POPP3    H2Y     31     0.090000     1.0080   ; qtot -1.000
    32       CTL2    170    POPP3    C23     32    -0.180000    12.0110   ; qtot -1.180
    33       HAL2    170    POPP3    H3R     33     0.090000     1.0080   ; qtot -1.090
    34       HAL2    170    POPP3    H3S     34     0.090000     1.0080   ; qtot -1.000
    35       CTL2    170    POPP3    C24     35    -0.180000    12.0110   ; qtot -1.180
    36       HAL2    170    POPP3    H4R     36     0.090000     1.0080   ; qtot -1.090
    37       HAL2    170    POPP3    H4S     37     0.090000     1.0080   ; qtot -1.000
    38       CTL2    170    POPP3    C25     38    -0.180000    12.0110   ; qtot -1.180
    39       HAL2    170    POPP3    H5R     39     0.090000     1.0080   ; qtot -1.090
    40       HAL2    170    POPP3    H5S     40     0.090000     1.0080   ; qtot -1.000
    41       CTL2    170    POPP3    C26     41    -0.180000    12.0110   ; qtot -1.180
    42       HAL2    170    POPP3    H6R     42     0.090000     1.0080   ; qtot -1.090
    43       HAL2    170    POPP3    H6S     43     0.090000     1.0080   ; qtot -1.000
    44       CTL2    170    POPP3    C27     44    -0.180000    12.0110   ; qtot -1.180
    45       HAL2    170    POPP3    H7R     45     0.090000     1.0080   ; qtot -1.090
    46       HAL2    170    POPP3    H7S     46     0.090000     1.0080   ; qtot -1.000
    47       CTL2    170    POPP3    C28     47    -0.180000    12.0110   ; qtot -1.180
    48       HAL2    170    POPP3    H8R     48     0.090000     1.0080   ; qtot -1.090
    49       HAL2    170    POPP3    H8S     49     0.090000     1.0080   ; qtot -1.000
    50       CEL1    170    POPP3    C29     50    -0.150000    12.0110   ; qtot -1.150
    51       HEL1    170    POPP3    H91     51     0.150000     1.0080   ; qtot -1.000
    52       CEL1    170    POPP3   C210     52    -0.150000    12.0110   ; qtot -1.150
    53       HEL1    170    POPP3   H101     53     0.150000     1.0080   ; qtot -1.000
    54       CTL2    170    POPP3   C211     54    -0.180000    12.0110   ; qtot -1.180
    55       HAL2    170    POPP3   H11R     55     0.090000     1.0080   ; qtot -1.090
    56       HAL2    170    POPP3   H11S     56     0.090000     1.0080   ; qtot -1.000
    57       CTL2    170    POPP3   C212     57    -0.180000    12.0110   ; qtot -1.180
    58       HAL2    170    POPP3   H12R     58     0.090000     1.0080   ; qtot -1.090
    59       HAL2    170    POPP3   H12S     59     0.090000     1.0080   ; qtot -1.000
    60       CTL2    170    POPP3   C213     60    -0.180000    12.0110   ; qtot -1.180
    61       HAL2    170    POPP3   H13R     61     0.090000     1.0080   ; qtot -1.090
    62       HAL2    170    POPP3   H13S     62     0.090000     1.0080   ; qtot -1.000
    63       CTL2    170    POPP3   C214     63    -0.180000    12.0110   ; qtot -1.180
    64       HAL2    170    POPP3   H14R     64     0.090000     1.0080   ; qtot -1.090
    65       HAL2    170    POPP3   H14S     65     0.090000     1.0080   ; qtot -1.000
    66       CTL2    170    POPP3   C215     66    -0.180000    12.0110   ; qtot -1.180
    67       HAL2    170    POPP3   H15R     67     0.090000     1.0080   ; qtot -1.090
    68       HAL2    170    POPP3   H15S     68     0.090000     1.0080   ; qtot -1.000
    69       CTL2    170    POPP3   C216     69    -0.180000    12.0110   ; qtot -1.180
    70       HAL2    170    POPP3   H16R     70     0.090000     1.0080   ; qtot -1.090
    71       HAL2    170    POPP3   H16S     71     0.090000     1.0080   ; qtot -1.000
    72       CTL2    170    POPP3   C217     72    -0.180000    12.0110   ; qtot -1.180
    73       HAL2    170    POPP3   H17R     73     0.090000     1.0080   ; qtot -1.090
    74       HAL2    170    POPP3   H17S     74     0.090000     1.0080   ; qtot -1.000
    75       CTL3    170    POPP3   C218     75    -0.270000    12.0110   ; qtot -1.270
    76       HAL3    170    POPP3   H18R     76     0.090000     1.0080   ; qtot -1.180
    77       HAL3    170    POPP3   H18S     77     0.090000     1.0080   ; qtot -1.090
    78       HAL3    170    POPP3   H18T     78     0.090000     1.0080   ; qtot -1.000
    79       CTL2    170    POPP3    C33     79    -0.180000    12.0110   ; qtot -1.180
    80       HAL2    170    POPP3    H3X     80     0.090000     1.0080   ; qtot -1.090
    81       HAL2    170    POPP3    H3Y     81     0.090000     1.0080   ; qtot -1.000
    82       CTL2    170    POPP3    C34     82    -0.180000    12.0110   ; qtot -1.180
    83       HAL2    170    POPP3    H4X     83     0.090000     1.0080   ; qtot -1.090
    84       HAL2    170    POPP3    H4Y     84     0.090000     1.0080   ; qtot -1.000
    85       CTL2    170    POPP3    C35     85    -0.180000    12.0110   ; qtot -1.180
    86       HAL2    170    POPP3    H5X     86     0.090000     1.0080   ; qtot -1.090
    87       HAL2    170    POPP3    H5Y     87     0.090000     1.0080   ; qtot -1.000
    88       CTL2    170    POPP3    C36     88    -0.180000    12.0110   ; qtot -1.180
    89       HAL2    170    POPP3    H6X     89     0.090000     1.0080   ; qtot -1.090
    90       HAL2    170    POPP3    H6Y     90     0.090000     1.0080   ; qtot -1.000
    91       CTL2    170    POPP3    C37     91    -0.180000    12.0110   ; qtot -1.180
    92       HAL2    170    POPP3    H7X     92     0.090000     1.0080   ; qtot -1.090
    93       HAL2    170    POPP3    H7Y     93     0.090000     1.0080   ; qtot -1.000
    94       CTL2    170    POPP3    C38     94    -0.180000    12.0110   ; qtot -1.180
    95       HAL2    170    POPP3    H8X     95     0.090000     1.0080   ; qtot -1.090
    96       HAL2    170    POPP3    H8Y     96     0.090000     1.0080   ; qtot -1.000
    97       CTL2    170    POPP3    C39     97    -0.180000    12.0110   ; qtot -1.180
    98       HAL2    170    POPP3    H9X     98     0.090000     1.0080   ; qtot -1.090
    99       HAL2    170    POPP3    H9Y     99     0.090000     1.0080   ; qtot -1.000
   100       CTL2    170    POPP3   C310    100    -0.180000    12.0110   ; qtot -1.180
   101       HAL2    170    POPP3   H10X    101     0.090000     1.0080   ; qtot -1.090
   102       HAL2    170    POPP3   H10Y    102     0.090000     1.0080   ; qtot -1.000
   103       CTL2    170    POPP3   C311    103    -0.180000    12.0110   ; qtot -1.180
   104       HAL2    170    POPP3   H11X    104     0.090000     1.0080   ; qtot -1.090
   105       HAL2    170    POPP3   H11Y    105     0.090000     1.0080   ; qtot -1.000
   106       CTL2    170    POPP3   C312    106    -0.180000    12.0110   ; qtot -1.180
   107       HAL2    170    POPP3   H12X    107     0.090000     1.0080   ; qtot -1.090
   108       HAL2    170    POPP3   H12Y    108     0.090000     1.0080   ; qtot -1.000
   109       CTL2    170    POPP3   C313    109    -0.180000    12.0110   ; qtot -1.180
   110       HAL2    170    POPP3   H13X    110     0.090000     1.0080   ; qtot -1.090
   111       HAL2    170    POPP3   H13Y    111     0.090000     1.0080   ; qtot -1.000
   112       CTL2    170    POPP3   C314    112    -0.180000    12.0110   ; qtot -1.180
   113       HAL2    170    POPP3   H14X    113     0.090000     1.0080   ; qtot -1.090
   114       HAL2    170    POPP3   H14Y    114     0.090000     1.0080   ; qtot -1.000
   115       CTL2    170    POPP3   C315    115    -0.180000    12.0110   ; qtot -1.180
   116       HAL2    170    POPP3   H15X    116     0.090000     1.0080   ; qtot -1.090
   117       HAL2    170    POPP3   H15Y    117     0.090000     1.0080   ; qtot -1.000
   118       CTL3    170    POPP3   C316    118    -0.270000    12.0110   ; qtot -1.270
   119       HAL3    170    POPP3   H16X    119     0.090000     1.0080   ; qtot -1.180
   120       HAL3    170    POPP3   H16Y    120     0.090000     1.0080   ; qtot -1.090
   121       HAL3    170    POPP3   H16Z    121     0.090000     1.0080   ; qtot -1.000

[ bonds ]
; ai	aj	funct	b0	Kb
    1     2     1
    1     4     1
    1     5     1
    1     7     1
    2     3     1
    6     7     1
    6     8     1
    6    10     1
    6    11     1
    8     9     1
   11    12     1
   12    13     1
   12    14     1
   12    15     1
   15    16     1
   15    17     1
   15    23     1
   17    18     1
   18    19     1
   18    20     1
   20    21     1
   20    22     1
   20    32     1
   23    24     1
   23    25     1
   23    26     1
   26    27     1
   27    28     1
   27    29     1
   29    30     1
   29    31     1
   29    79     1
   32    33     1
   32    34     1
   32    35     1
   35    36     1
   35    37     1
   35    38     1
   38    39     1
   38    40     1
   38    41     1
   41    42     1
   41    43     1
   41    44     1
   44    45     1
   44    46     1
   44    47     1
   47    48     1
   47    49     1
   47    50     1
   50    51     1
   50    52     1
   52    53     1
   52    54     1
   54    55     1
   54    56     1
   54    57     1
   57    58     1
   57    59     1
   57    60     1
   60    61     1
   60    62     1
   60    63     1
   63    64     1
   63    65     1
   63    66     1
   66    67     1
   66    68     1
   66    69     1
   69    70     1
   69    71     1
   69    72     1
   72    73     1
   72    74     1
   72    75     1
   75    76     1
   75    77     1
   75    78     1
   79    80     1
   79    81     1
   79    82     1
   82    83     1
   82    84     1
   82    85     1
   85    86     1
   85    87     1
   85    88     1
   88    89     1
   88    90     1
   88    91     1
   91    92     1
   91    93     1
   91    94     1
   94    95     1
   94    96     1
   94    97     1
   97    98     1
   97    99     1
   97   100     1
  100   101     1
  100   102     1
  100   103     1
  103   104     1
  103   105     1
  103   106     1
  106   107     1
  106   108     1
  106   109     1
  109   110     1
  109   111     1
  109   112     1
  112   113     1
  112   114     1
  112   115     1
  115   116     1
  115   117     1
  115   118     1
  118   119     1
  118   120     1
  118   121     1

[ pairs ]
; ai	aj	funct	c6	c12 or
; ai	aj	funct	fudgeQQ	q1	q2	c6	c12
    1     8     1
    1    10     1
    1    11     1
    2     6     1
    3     4     1
    3     5     1
    3     7     1
    4     6     1
    5     6     1
    6    13     1
    6    14     1
    6    15     1
    7     9     1
    7    12     1
    8    12     1
    9    10     1
    9    11     1
   10    12     1
   11    16     1
   11    17     1
   11    23     1
   12    18     1
   12    24     1
   12    25     1
   12    26     1
   13    16     1
   13    17     1
   13    23     1
   14    16     1
   14    17     1
   14    23     1
   15    19     1
   15    20     1
   15    27     1
   16    18     1
   16    24     1
   16    25     1
   16    26     1
   17    21     1
   17    22     1
   17    24     1
   17    25     1
   17    26     1
   17    32     1
   18    23     1
   18    33     1
   18    34     1
   18    35     1
   19    21     1
   19    22     1
   19    32     1
   20    36     1
   20    37     1
   20    38     1
   21    33     1
   21    34     1
   21    35     1
   22    33     1
   22    34     1
   22    35     1
   23    28     1
   23    29     1
   24    27     1
   25    27     1
   26    30     1
   26    31     1
   26    79     1
   27    80     1
   27    81     1
   27    82     1
   28    30     1
   28    31     1
   28    79     1
   29    83     1
   29    84     1
   29    85     1
   30    80     1
   30    81     1
   30    82     1
   31    80     1
   31    81     1
   31    82     1
   32    39     1
   32    40     1
   32    41     1
   33    36     1
   33    37     1
   33    38     1
   34    36     1
   34    37     1
   34    38     1
   35    42     1
   35    43     1
   35    44     1
   36    39     1
   36    40     1
   36    41     1
   37    39     1
   37    40     1
   37    41     1
   38    45     1
   38    46     1
   38    47     1
   39    42     1
   39    43     1
   39    44     1
   40    42     1
   40    43     1
   40    44     1
   41    48     1
   41    49     1
   41    50     1
   42    45     1
   42    46     1
   42    47     1
   43    45     1
   43    46     1
   43    47     1
   44    51     1
   44    52     1
   45    48     1
   45    49     1
   45    50     1
   46    48     1
   46    49     1
   46    50     1
   47    53     1
   47    54     1
   48    51     1
   48    52     1
   49    51     1
   49    52     1
   50    55     1
   50    56     1
   50    57     1
   51    53     1
   51    54     1
   52    58     1
   52    59     1
   52    60     1
   53    55     1
   53    56     1
   53    57     1
   54    61     1
   54    62     1
   54    63     1
   55    58     1
   55    59     1
   55    60     1
   56    58     1
   56    59     1
   56    60     1
   57    64     1
   57    65     1
   57    66     1
   58    61     1
   58    62     1
   58    63     1
   59    61     1
   59    62     1
   59    63     1
   60    67     1
   60    68     1
   60    69     1
   61    64     1
   61    65     1
   61    66     1
   62    64     1
   62    65     1
   62    66     1
   63    70     1
   63    71     1
   63    72     1
   64    67     1
   64    68     1
   64    69     1
   65    67     1
   65    68     1
   65    69     1
   66    73     1
   66    74     1
   66    75     1
   67    70     1
   67    71     1
   67    72     1
   68    70     1
   68    71     1
   68    72     1
   69    76     1
   69    77     1
   69    78     1
   70    73     1
   70    74     1
   70    75     1
   71    73     1
   71    74     1
   71    75     1
   73    76     1
   73    77     1
   73    78     1
   74    76     1
   74    77     1
   74    78     1
   79    86     1
   79    87     1
   79    88     1
   80    83     1
   80    84     1
   80    85     1
   81    83     1
   81    84     1
   81    85     1
   82    89     1
   82    90     1
   82    91     1
   83    86     1
   83    87     1
   83    88     1
   84    86     1
   84    87     1
   84    88     1
   85    92     1
   85    93     1
   85    94     1
   86    89     1
   86    90     1
   86    91     1
   87    89     1
   87    90     1
   87    91     1
   88    95     1
   88    96     1
   88    97     1
   89    92     1
   89    93     1
   89    94     1
   90    92     1
   90    93     1
   90    94     1
   91    98     1
   91    99     1
   91   100     1
   92    95     1
   92    96     1
   92    97     1
   93    95     1
   93    96     1
   93    97     1
   94   101     1
   94   102     1
   94   103     1
   95    98     1
   95    99     1
   95   100     1
   96    98     1
   96    99     1
   96   100     1
   97   104     1
   97   105     1
   97   106     1
   98   101     1
   98   102     1
   98   103     1
   99   101     1
   99   102     1
   99   103     1
  100   107     1
  100   108     1
  100   109     1
  101   104     1
  101   105     1
  101   106     1
  102   104     1
  102   105     1
  102   106     1
  103   110     1
  103   111     1
  103   112     1
  104   107     1
  104   108     1
  104   109     1
  105   107     1
  105   108     1
  105   109     1
  106   113     1
  106   114     1
  106   115     1
  107   110     1
  107   111     1
  107   112     1
  108   110     1
  108   111     1
  108   112     1
  109   116     1
  109   117     1
  109   118     1
  110   113     1
  110   114     1
  110   115     1
  111   113     1
  111   114     1
  111   115     1
  112   119     1
  112   120     1
  112   121     1
  113   116     1
  113   117     1
  113   118     1
  114   116     1
  114   117     1
  114   118     1
  116   119     1
  116   120     1
  116   121     1
  117   119     1
  117   120     1
  117   121     1

[ angles ] 
; ai	aj	ak	funct	th0	cth	S0	Kub
    2     1     4     5
    2     1     5     5
    2     1     7     5
    4     1     5     5
    4     1     7     5
    5     1     7     5
    1     2     3     5
    7     6     8     5
    7     6    10     5
    7     6    11     5
    8     6    10     5
    8     6    11     5
   10     6    11     5
    1     7     6     5
    6     8     9     5
    6    11    12     5
   11    12    13     5
   11    12    14     5
   11    12    15     5
   13    12    14     5
   13    12    15     5
   14    12    15     5
   12    15    16     5
   12    15    17     5
   12    15    23     5
   16    15    17     5
   16    15    23     5
   17    15    23     5
   15    17    18     5
   17    18    19     5
   17    18    20     5
   19    18    20     5
   18    20    21     5
   18    20    22     5
   18    20    32     5
   21    20    22     5
   21    20    32     5
   22    20    32     5
   15    23    24     5
   15    23    25     5
   15    23    26     5
   24    23    25     5
   24    23    26     5
   25    23    26     5
   23    26    27     5
   26    27    28     5
   26    27    29     5
   28    27    29     5
   27    29    30     5
   27    29    31     5
   27    29    79     5
   30    29    31     5
   30    29    79     5
   31    29    79     5
   20    32    33     5
   20    32    34     5
   20    32    35     5
   33    32    34     5
   33    32    35     5
   34    32    35     5
   32    35    36     5
   32    35    37     5
   32    35    38     5
   36    35    37     5
   36    35    38     5
   37    35    38     5
   35    38    39     5
   35    38    40     5
   35    38    41     5
   39    38    40     5
   39    38    41     5
   40    38    41     5
   38    41    42     5
   38    41    43     5
   38    41    44     5
   42    41    43     5
   42    41    44     5
   43    41    44     5
   41    44    45     5
   41    44    46     5
   41    44    47     5
   45    44    46     5
   45    44    47     5
   46    44    47     5
   44    47    48     5
   44    47    49     5
   44    47    50     5
   48    47    49     5
   48    47    50     5
   49    47    50     5
   47    50    51     5
   47    50    52     5
   51    50    52     5
   50    52    53     5
   50    52    54     5
   53    52    54     5
   52    54    55     5
   52    54    56     5
   52    54    57     5
   55    54    56     5
   55    54    57     5
   56    54    57     5
   54    57    58     5
   54    57    59     5
   54    57    60     5
   58    57    59     5
   58    57    60     5
   59    57    60     5
   57    60    61     5
   57    60    62     5
   57    60    63     5
   61    60    62     5
   61    60    63     5
   62    60    63     5
   60    63    64     5
   60    63    65     5
   60    63    66     5
   64    63    65     5
   64    63    66     5
   65    63    66     5
   63    66    67     5
   63    66    68     5
   63    66    69     5
   67    66    68     5
   67    66    69     5
   68    66    69     5
   66    69    70     5
   66    69    71     5
   66    69    72     5
   70    69    71     5
   70    69    72     5
   71    69    72     5
   69    72    73     5
   69    72    74     5
   69    72    75     5
   73    72    74     5
   73    72    75     5
   74    72    75     5
   72    75    76     5
   72    75    77     5
   72    75    78     5
   76    75    77     5
   76    75    78     5
   77    75    78     5
   29    79    80     5
   29    79    81     5
   29    79    82     5
   80    79    81     5
   80    79    82     5
   81    79    82     5
   79    82    83     5
   79    82    84     5
   79    82    85     5
   83    82    84     5
   83    82    85     5
   84    82    85     5
   82    85    86     5
   82    85    87     5
   82    85    88     5
   86    85    87     5
   86    85    88     5
   87    85    88     5
   85    88    89     5
   85    88    90     5
   85    88    91     5
   89    88    90     5
   89    88    91     5
   90    88    91     5
   88    91    92     5
   88    91    93     5
   88    91    94     5
   92    91    93     5
   92    91    94     5
   93    91    94     5
   91    94    95     5
   91    94    96     5
   91    94    97     5
   95    94    96     5
   95    94    97     5
   96    94    97     5
   94    97    98     5
   94    97    99     5
   94    97   100     5
   98    97    99     5
   98    97   100     5
   99    97   100     5
   97   100   101     5
   97   100   102     5
   97   100   103     5
  101   100   102     5
  101   100   103     5
  102   100   103     5
  100   103   104     5
  100   103   105     5
  100   103   106     5
  104   103   105     5
  104   103   106     5
  105   103   106     5
  103   106   107     5
  103   106   108     5
  103   106   109     5
  107   106   108     5
  107   106   109     5
  108   106   109     5
  106   109   110     5
  106   109   111     5
  106   109   112     5
  110   109   111     5
  110   109   112     5
  111   109   112     5
  109   112   113     5
  109   112   114     5
  109   112   115     5
  113   112   114     5
  113   112   115     5
  114   112   115     5
  112   115   116     5
  112   115   117     5
  112   115   118     5
  116   115   117     5
  116   115   118     5
  117   115   118     5
  115   118   119     5
  115   118   120     5
  115   118   121     5
  119   118   120     5
  119   118   121     5
  120   118   121     5

[ dihedrals ]
; ai	aj	ak	al	funct	phi0	cp	mult
    2     1     7     6     9
    4     1     7     6     9
    5     1     7     6     9
    3     2     1     4     9
    3     2     1     5     9
    3     2     1     7     9
    7     6     8     9     9
    7     6    11    12     9
    8     6    11    12     9
   10     6    11    12     9
    1     7     6     8     9
    1     7     6    10     9
    1     7     6    11     9
    9     8     6    10     9
    9     8     6    11     9
    6    11    12    13     9
    6    11    12    14     9
    6    11    12    15     9
   11    12    15    16     9
   11    12    15    17     9
   11    12    15    23     9
   13    12    15    16     9
   13    12    15    17     9
   13    12    15    23     9
   14    12    15    16     9
   14    12    15    17     9
   14    12    15    23     9
   12    15    17    18     9
   16    15    17    18     9
   12    15    23    24     9
   12    15    23    25     9
   12    15    23    26     9
   16    15    23    24     9
   16    15    23    25     9
   16    15    23    26     9
   17    15    23    24     9
   17    15    23    25     9
   17    15    23    26     9
   18    17    15    23     9
   15    17    18    19     9
   15    17    18    20     9
   17    18    20    21     9
   17    18    20    22     9
   17    18    20    32     9
   19    18    20    21     9
   19    18    20    22     9
   19    18    20    32     9
   18    20    32    33     9
   18    20    32    34     9
   18    20    32    35     9
   21    20    32    33     9
   21    20    32    34     9
   21    20    32    35     9
   22    20    32    33     9
   22    20    32    34     9
   22    20    32    35     9
   15    23    26    27     9
   24    23    26    27     9
   25    23    26    27     9
   23    26    27    28     9
   23    26    27    29     9
   26    27    29    30     9
   26    27    29    31     9
   26    27    29    79     9
   28    27    29    30     9
   28    27    29    31     9
   28    27    29    79     9
   27    29    79    80     9
   27    29    79    81     9
   27    29    79    82     9
   30    29    79    80     9
   30    29    79    81     9
   30    29    79    82     9
   31    29    79    80     9
   31    29    79    81     9
   31    29    79    82     9
   20    32    35    36     9
   20    32    35    37     9
   20    32    35    38     9
   33    32    35    36     9
   33    32    35    37     9
   33    32    35    38     9
   34    32    35    36     9
   34    32    35    37     9
   34    32    35    38     9
   32    35    38    39     9
   32    35    38    40     9
   32    35    38    41     9
   36    35    38    39     9
   36    35    38    40     9
   36    35    38    41     9
   37    35    38    39     9
   37    35    38    40     9
   37    35    38    41     9
   35    38    41    42     9
   35    38    41    43     9
   35    38    41    44     9
   39    38    41    42     9
   39    38    41    43     9
   39    38    41    44     9
   40    38    41    42     9
   40    38    41    43     9
   40    38    41    44     9
   38    41    44    45     9
   38    41    44    46     9
   38    41    44    47     9
   42    41    44    45     9
   42    41    44    46     9
   42    41    44    47     9
   43    41    44    45     9
   43    41    44    46     9
   43    41    44    47     9
   41    44    47    48     9
   41    44    47    49     9
   41    44    47    50     9
   45    44    47    48     9
   45    44    47    49     9
   45    44    47    50     9
   46    44    47    48     9
   46    44    47    49     9
   46    44    47    50     9
   44    47    50    51     9
   44    47    50    52     9
   48    47    50    51     9
   48    47    50    52     9
   49    47    50    51     9
   49    47    50    52     9
   47    50    52    53     9
   47    50    52    54     9
   51    50    52    53     9
   51    50    52    54     9
   50    52    54    55     9
   50    52    54    56     9
   50    52    54    57     9
   53    52    54    55     9
   53    52    54    56     9
   53    52    54    57     9
   52    54    57    58     9
   52    54    57    59     9
   52    54    57    60     9
   55    54    57    58     9
   55    54    57    59     9
   55    54    57    60     9
   56    54    57    58     9
   56    54    57    59     9
   56    54    57    60     9
   54    57    60    61     9
   54    57    60    62     9
   54    57    60    63     9
   58    57    60    61     9
   58    57    60    62     9
   58    57    60    63     9
   59    57    60    61     9
   59    57    60    62     9
   59    57    60    63     9
   57    60    63    64     9
   57    60    63    65     9
   57    60    63    66     9
   61    60    63    64     9
   61    60    63    65     9
   61    60    63    66     9
   62    60    63    64     9
   62    60    63    65     9
   62    60    63    66     9
   60    63    66    67     9
   60    63    66    68     9
   60    63    66    69     9
   64    63    66    67     9
   64    63    66    68     9
   64    63    66    69     9
   65    63    66    67     9
   65    63    66    68     9
   65    63    66    69     9
   63    66    69    70     9
   63    66    69    71     9
   63    66    69    72     9
   67    66    69    70     9
   67    66    69    71     9
   67    66    69    72     9
   68    66    69    70     9
   68    66    69    71     9
   68    66    69    72     9
   66    69    72    73     9
   66    69    72    74     9
   66    69    72    75     9
   70    69    72    73     9
   70    69    72    74     9
   70    69    72    75     9
   71    69    72    73     9
   71    69    72    74     9
   71    69    72    75     9
   69    72    75    76     9
   69    72    75    77     9
   69    72    75    78     9
   73    72    75    76     9
   73    72    75    77     9
   73    72    75    78     9
   74    72    75    76     9
   74    72    75    77     9
   74    72    75    78     9
   29    79    82    83     9
   29    79    82    84     9
   29    79    82    85     9
   80    79    82    83     9
   80    79    82    84     9
   80    79    82    85     9
   81    79    82    83     9
   81    79    82    84     9
   81    79    82    85     9
   79    82    85    86     9
   79    82    85    87     9
   79    82    85    88     9
   83    82    85    86     9
   83    82    85    87     9
   83    82    85    88     9
   84    82    85    86     9
   84    82    85    87     9
   84    82    85    88     9
   82    85    88    89     9
   82    85    88    90     9
   82    85    88    91     9
   86    85    88    89     9
   86    85    88    90     9
   86    85    88    91     9
   87    85    88    89     9
   87    85    88    90     9
   87    85    88    91     9
   85    88    91    92     9
   85    88    91    93     9
   85    88    91    94     9
   89    88    91    92     9
   89    88    91    93     9
   89    88    91    94     9
   90    88    91    92     9
   90    88    91    93     9
   90    88    91    94     9
   88    91    94    95     9
   88    91    94    96     9
   88    91    94    97     9
   92    91    94    95     9
   92    91    94    96     9
   92    91    94    97     9
   93    91    94    95     9
   93    91    94    96     9
   93    91    94    97     9
   91    94    97    98     9
   91    94    97    99     9
   91    94    97   100     9
   95    94    97    98     9
   95    94    97    99     9
   95    94    97   100     9
   96    94    97    98     9
   96    94    97    99     9
   96    94    97   100     9
   94    97   100   101     9
   94    97   100   102     9
   94    97   100   103     9
   98    97   100   101     9
   98    97   100   102     9
   98    97   100   103     9
   99    97   100   101     9
   99    97   100   102     9
   99    97   100   103     9
   97   100   103   104     9
   97   100   103   105     9
   97   100   103   106     9
  101   100   103   104     9
  101   100   103   105     9
  101   100   103   106     9
  102   100   103   104     9
  102   100   103   105     9
  102   100   103   106     9
  100   103   106   107     9
  100   103   106   108     9
  100   103   106   109     9
  104   103   106   107     9
  104   103   106   108     9
  104   103   106   109     9
  105   103   106   107     9
  105   103   106   108     9
  105   103   106   109     9
  103   106   109   110     9
  103   106   109   111     9
  103   106   109   112     9
  107   106   109   110     9
  107   106   109   111     9
  107   106   109   112     9
  108   106   109   110     9
  108   106   109   111     9
  108   106   109   112     9
  106   109   112   113     9
  106   109   112   114     9
  106   109   112   115     9
  110   109   112   113     9
  110   109   112   114     9
  110   109   112   115     9
  111   109   112   113     9
  111   109   112   114     9
  111   109   112   115     9
  109   112   115   116     9
  109   112   115   117     9
  109   112   115   118     9
  113   112   115   116     9
  113   112   115   117     9
  113   112   115   118     9
  114   112   115   116     9
  114   112   115   117     9
  114   112   115   118     9
  112   115   118   119     9
  112   115   118   120     9
  112   115   118   121     9
  116   115   118   119     9
  116   115   118   120     9
  116   115   118   121     9
  117   115   118   119     9
  117   115   118   120     9
  117   115   118   121     9

[ dihedrals ]
; ai	aj	ak	al	funct	q0	cq
   18    17    20    19     2
   27    26    29    28     2

#ifdef POSRES
[ position_restraints ]
    6     1     0.0             0.0            POSRES_FC_LIPID
#endif

#ifdef DIHRES
[ dihedral_restraints ]
   12    23    15    17     1   -120.0      2.5       DIHRES_FC
   47    50    52    54     1      0.0      0.0       DIHRES_FC
#endif
