;;
;; Generated by CHARMM-GUI FF-Converter
;;
;; Correspondance:
;; jul316@lehigh.edu or wonpil@lehigh.edu
;;
;; GROMACS topology file for SDPI
;;


[ moleculetype ]
; name	nrexcl
SDPI	     3

[ atoms ]
; nr	type	resnr	residu	atom	cgnr	charge	mass
     1     CC3161    183     SDPI    C12      1     0.140000    12.0110   ; qtot  0.140
     2       HCA1    183     SDPI     H2      2     0.090000     1.0080   ; qtot  0.230
     3      OC311    183     SDPI     O2      3    -0.650000    15.9994   ; qtot -0.420
     4       HCP1    183     SDPI    HO2      4     0.420000     1.0080   ; qtot -0.000
     5     CC3161    183     SDPI    C13      5     0.140000    12.0110   ; qtot  0.140
     6       HCA1    183     SDPI     H3      6     0.090000     1.0080   ; qtot  0.230
     7      OC311    183     SDPI     O3      7    -0.650000    15.9994   ; qtot -0.420
     8       HCP1    183     SDPI    HO3      8     0.420000     1.0080   ; qtot -0.000
     9     CC3161    183     SDPI    C14      9     0.140000    12.0110   ; qtot  0.140
    10       HCA1    183     SDPI     H4     10     0.090000     1.0080   ; qtot  0.230
    11      OC311    183     SDPI     O4     11    -0.650000    15.9994   ; qtot -0.420
    12       HCP1    183     SDPI    HO4     12     0.420000     1.0080   ; qtot -0.000
    13     CC3161    183     SDPI    C15     13     0.140000    12.0110   ; qtot  0.140
    14       HCA1    183     SDPI     H5     14     0.090000     1.0080   ; qtot  0.230
    15      OC311    183     SDPI     O5     15    -0.650000    15.9994   ; qtot -0.420
    16       HCP1    183     SDPI    HO5     16     0.420000     1.0080   ; qtot -0.000
    17     CC3161    183     SDPI    C16     17     0.140000    12.0110   ; qtot  0.140
    18       HCA1    183     SDPI     H6     18     0.090000     1.0080   ; qtot  0.230
    19      OC311    183     SDPI     O6     19    -0.650000    15.9994   ; qtot -0.420
    20       HCP1    183     SDPI    HO6     20     0.420000     1.0080   ; qtot -0.000
    21     CC3161    183     SDPI    C11     21    -0.080000    12.0110   ; qtot -0.080
    22       HCA1    183     SDPI     H1     22     0.090000     1.0080   ; qtot  0.010
    23         PL    183     SDPI      P     23     1.590000    30.9740   ; qtot  1.600
    24        O2L    183     SDPI    O13     24    -0.780000    15.9994   ; qtot  0.820
    25        O2L    183     SDPI    O14     25    -0.780000    15.9994   ; qtot  0.040
    26      OC30P    183     SDPI    O12     26    -0.570000    15.9994   ; qtot -0.530
    27       OSLP    183     SDPI    O11     27    -0.570000    15.9994   ; qtot -1.100
    28       CTL2    183     SDPI     C1     28    -0.080000    12.0110   ; qtot -1.180
    29       HAL2    183     SDPI     HA     29     0.090000     1.0080   ; qtot -1.090
    30       HAL2    183     SDPI     HB     30     0.090000     1.0080   ; qtot -1.000
    31       CTL1    183     SDPI     C2     31     0.170000    12.0110   ; qtot -0.830
    32       HAL1    183     SDPI     HS     32     0.090000     1.0080   ; qtot -0.740
    33        OSL    183     SDPI    O21     33    -0.490000    15.9994   ; qtot -1.230
    34         CL    183     SDPI    C21     34     0.900000    12.0110   ; qtot -0.330
    35        OBL    183     SDPI    O22     35    -0.630000    15.9994   ; qtot -0.960
    36       CTL2    183     SDPI    C22     36    -0.220000    12.0110   ; qtot -1.180
    37       HAL2    183     SDPI    H2R     37     0.090000     1.0080   ; qtot -1.090
    38       HAL2    183     SDPI    H2S     38     0.090000     1.0080   ; qtot -1.000
    39       CTL2    183     SDPI     C3     39     0.080000    12.0110   ; qtot -0.920
    40       HAL2    183     SDPI     HX     40     0.090000     1.0080   ; qtot -0.830
    41       HAL2    183     SDPI     HY     41     0.090000     1.0080   ; qtot -0.740
    42        OSL    183     SDPI    O31     42    -0.490000    15.9994   ; qtot -1.230
    43         CL    183     SDPI    C31     43     0.900000    12.0110   ; qtot -0.330
    44        OBL    183     SDPI    O32     44    -0.630000    15.9994   ; qtot -0.960
    45       CTL2    183     SDPI    C32     45    -0.220000    12.0110   ; qtot -1.180
    46       HAL2    183     SDPI    H2X     46     0.090000     1.0080   ; qtot -1.090
    47       HAL2    183     SDPI    H2Y     47     0.090000     1.0080   ; qtot -1.000
    48       CTL2    183     SDPI    C23     48    -0.180000    12.0110   ; qtot -1.180
    49       HAL2    183     SDPI    H3R     49     0.090000     1.0080   ; qtot -1.090
    50       HAL2    183     SDPI    H3S     50     0.090000     1.0080   ; qtot -1.000
    51       CEL1    183     SDPI    C24     51    -0.150000    12.0110   ; qtot -1.150
    52       HEL1    183     SDPI    H4R     52     0.150000     1.0080   ; qtot -1.000
    53       CEL1    183     SDPI    C25     53    -0.150000    12.0110   ; qtot -1.150
    54       HEL1    183     SDPI    H5R     54     0.150000     1.0080   ; qtot -1.000
    55       CTL2    183     SDPI    C26     55    -0.180000    12.0110   ; qtot -1.180
    56       HAL2    183     SDPI    H6R     56     0.090000     1.0080   ; qtot -1.090
    57       HAL2    183     SDPI    H6S     57     0.090000     1.0080   ; qtot -1.000
    58       CEL1    183     SDPI    C27     58    -0.150000    12.0110   ; qtot -1.150
    59       HEL1    183     SDPI    H7R     59     0.150000     1.0080   ; qtot -1.000
    60       CEL1    183     SDPI    C28     60    -0.150000    12.0110   ; qtot -1.150
    61       HEL1    183     SDPI    H8R     61     0.150000     1.0080   ; qtot -1.000
    62       CTL2    183     SDPI    C29     62    -0.180000    12.0110   ; qtot -1.180
    63       HAL2    183     SDPI    H9R     63     0.090000     1.0080   ; qtot -1.090
    64       HAL2    183     SDPI    H9S     64     0.090000     1.0080   ; qtot -1.000
    65       CEL1    183     SDPI   C210     65    -0.150000    12.0110   ; qtot -1.150
    66       HEL1    183     SDPI   H10R     66     0.150000     1.0080   ; qtot -1.000
    67       CEL1    183     SDPI   C211     67    -0.150000    12.0110   ; qtot -1.150
    68       HEL1    183     SDPI   H11R     68     0.150000     1.0080   ; qtot -1.000
    69       CTL2    183     SDPI   C212     69    -0.180000    12.0110   ; qtot -1.180
    70       HAL2    183     SDPI   H12R     70     0.090000     1.0080   ; qtot -1.090
    71       HAL2    183     SDPI   H12S     71     0.090000     1.0080   ; qtot -1.000
    72       CEL1    183     SDPI   C213     72    -0.150000    12.0110   ; qtot -1.150
    73       HEL1    183     SDPI   H13R     73     0.150000     1.0080   ; qtot -1.000
    74       CEL1    183     SDPI   C214     74    -0.150000    12.0110   ; qtot -1.150
    75       HEL1    183     SDPI   H14R     75     0.150000     1.0080   ; qtot -1.000
    76       CTL2    183     SDPI   C215     76    -0.180000    12.0110   ; qtot -1.180
    77       HAL2    183     SDPI   H15R     77     0.090000     1.0080   ; qtot -1.090
    78       HAL2    183     SDPI   H15S     78     0.090000     1.0080   ; qtot -1.000
    79       CEL1    183     SDPI   C216     79    -0.150000    12.0110   ; qtot -1.150
    80       HEL1    183     SDPI   H16R     80     0.150000     1.0080   ; qtot -1.000
    81       CEL1    183     SDPI   C217     81    -0.150000    12.0110   ; qtot -1.150
    82       HEL1    183     SDPI   H17R     82     0.150000     1.0080   ; qtot -1.000
    83       CTL2    183     SDPI   C218     83    -0.180000    12.0110   ; qtot -1.180
    84       HAL2    183     SDPI   H18R     84     0.090000     1.0080   ; qtot -1.090
    85       HAL2    183     SDPI   H18S     85     0.090000     1.0080   ; qtot -1.000
    86       CEL1    183     SDPI   C219     86    -0.150000    12.0110   ; qtot -1.150
    87       HEL1    183     SDPI   H19R     87     0.150000     1.0080   ; qtot -1.000
    88       CEL1    183     SDPI   C220     88    -0.150000    12.0110   ; qtot -1.150
    89       HEL1    183     SDPI   H20R     89     0.150000     1.0080   ; qtot -1.000
    90       CTL2    183     SDPI   C221     90    -0.180000    12.0110   ; qtot -1.180
    91       HAL2    183     SDPI   H21R     91     0.090000     1.0080   ; qtot -1.090
    92       HAL2    183     SDPI   H21S     92     0.090000     1.0080   ; qtot -1.000
    93       CTL3    183     SDPI   C222     93    -0.270000    12.0110   ; qtot -1.270
    94       HAL3    183     SDPI   H22R     94     0.090000     1.0080   ; qtot -1.180
    95       HAL3    183     SDPI   H22S     95     0.090000     1.0080   ; qtot -1.090
    96       HAL3    183     SDPI   H22T     96     0.090000     1.0080   ; qtot -1.000
    97       CTL2    183     SDPI    C33     97    -0.180000    12.0110   ; qtot -1.180
    98       HAL2    183     SDPI    H3X     98     0.090000     1.0080   ; qtot -1.090
    99       HAL2    183     SDPI    H3Y     99     0.090000     1.0080   ; qtot -1.000
   100       CTL2    183     SDPI    C34    100    -0.180000    12.0110   ; qtot -1.180
   101       HAL2    183     SDPI    H4X    101     0.090000     1.0080   ; qtot -1.090
   102       HAL2    183     SDPI    H4Y    102     0.090000     1.0080   ; qtot -1.000
   103       CTL2    183     SDPI    C35    103    -0.180000    12.0110   ; qtot -1.180
   104       HAL2    183     SDPI    H5X    104     0.090000     1.0080   ; qtot -1.090
   105       HAL2    183     SDPI    H5Y    105     0.090000     1.0080   ; qtot -1.000
   106       CTL2    183     SDPI    C36    106    -0.180000    12.0110   ; qtot -1.180
   107       HAL2    183     SDPI    H6X    107     0.090000     1.0080   ; qtot -1.090
   108       HAL2    183     SDPI    H6Y    108     0.090000     1.0080   ; qtot -1.000
   109       CTL2    183     SDPI    C37    109    -0.180000    12.0110   ; qtot -1.180
   110       HAL2    183     SDPI    H7X    110     0.090000     1.0080   ; qtot -1.090
   111       HAL2    183     SDPI    H7Y    111     0.090000     1.0080   ; qtot -1.000
   112       CTL2    183     SDPI    C38    112    -0.180000    12.0110   ; qtot -1.180
   113       HAL2    183     SDPI    H8X    113     0.090000     1.0080   ; qtot -1.090
   114       HAL2    183     SDPI    H8Y    114     0.090000     1.0080   ; qtot -1.000
   115       CTL2    183     SDPI    C39    115    -0.180000    12.0110   ; qtot -1.180
   116       HAL2    183     SDPI    H9X    116     0.090000     1.0080   ; qtot -1.090
   117       HAL2    183     SDPI    H9Y    117     0.090000     1.0080   ; qtot -1.000
   118       CTL2    183     SDPI   C310    118    -0.180000    12.0110   ; qtot -1.180
   119       HAL2    183     SDPI   H10X    119     0.090000     1.0080   ; qtot -1.090
   120       HAL2    183     SDPI   H10Y    120     0.090000     1.0080   ; qtot -1.000
   121       CTL2    183     SDPI   C311    121    -0.180000    12.0110   ; qtot -1.180
   122       HAL2    183     SDPI   H11X    122     0.090000     1.0080   ; qtot -1.090
   123       HAL2    183     SDPI   H11Y    123     0.090000     1.0080   ; qtot -1.000
   124       CTL2    183     SDPI   C312    124    -0.180000    12.0110   ; qtot -1.180
   125       HAL2    183     SDPI   H12X    125     0.090000     1.0080   ; qtot -1.090
   126       HAL2    183     SDPI   H12Y    126     0.090000     1.0080   ; qtot -1.000
   127       CTL2    183     SDPI   C313    127    -0.180000    12.0110   ; qtot -1.180
   128       HAL2    183     SDPI   H13X    128     0.090000     1.0080   ; qtot -1.090
   129       HAL2    183     SDPI   H13Y    129     0.090000     1.0080   ; qtot -1.000
   130       CTL2    183     SDPI   C314    130    -0.180000    12.0110   ; qtot -1.180
   131       HAL2    183     SDPI   H14X    131     0.090000     1.0080   ; qtot -1.090
   132       HAL2    183     SDPI   H14Y    132     0.090000     1.0080   ; qtot -1.000
   133       CTL2    183     SDPI   C315    133    -0.180000    12.0110   ; qtot -1.180
   134       HAL2    183     SDPI   H15X    134     0.090000     1.0080   ; qtot -1.090
   135       HAL2    183     SDPI   H15Y    135     0.090000     1.0080   ; qtot -1.000
   136       CTL2    183     SDPI   C316    136    -0.180000    12.0110   ; qtot -1.180
   137       HAL2    183     SDPI   H16X    137     0.090000     1.0080   ; qtot -1.090
   138       HAL2    183     SDPI   H16Y    138     0.090000     1.0080   ; qtot -1.000
   139       CTL2    183     SDPI   C317    139    -0.180000    12.0110   ; qtot -1.180
   140       HAL2    183     SDPI   H17X    140     0.090000     1.0080   ; qtot -1.090
   141       HAL2    183     SDPI   H17Y    141     0.090000     1.0080   ; qtot -1.000
   142       CTL3    183     SDPI   C318    142    -0.270000    12.0110   ; qtot -1.270
   143       HAL3    183     SDPI   H18X    143     0.090000     1.0080   ; qtot -1.180
   144       HAL3    183     SDPI   H18Y    144     0.090000     1.0080   ; qtot -1.090
   145       HAL3    183     SDPI   H18Z    145     0.090000     1.0080   ; qtot -1.000

[ bonds ]
; ai	aj	funct	b0	Kb
    1     2     1
    1     3     1
    1     5     1
   21     1     1
    3     4     1
    5     6     1
    5     7     1
    5     9     1
    7     8     1
    9    10     1
    9    11     1
    9    13     1
   11    12     1
   13    14     1
   13    15     1
   13    17     1
   15    16     1
   17    18     1
   17    19     1
   21    17     1
   19    20     1
   21    22     1
   21    26     1
   23    24     1
   23    25     1
   26    23     1
   23    27     1
   27    28     1
   28    29     1
   28    30     1
   28    31     1
   31    32     1
   31    33     1
   31    39     1
   33    34     1
   34    35     1
   34    36     1
   36    37     1
   36    38     1
   36    48     1
   39    40     1
   39    41     1
   39    42     1
   42    43     1
   43    44     1
   43    45     1
   45    46     1
   45    47     1
   45    97     1
   48    49     1
   48    50     1
   48    51     1
   51    52     1
   51    53     1
   53    54     1
   53    55     1
   55    56     1
   55    57     1
   55    58     1
   58    59     1
   58    60     1
   60    61     1
   60    62     1
   62    63     1
   62    64     1
   62    65     1
   65    66     1
   65    67     1
   67    68     1
   67    69     1
   69    70     1
   69    71     1
   69    72     1
   72    73     1
   72    74     1
   74    75     1
   74    76     1
   76    77     1
   76    78     1
   76    79     1
   79    80     1
   79    81     1
   81    82     1
   81    83     1
   83    84     1
   83    85     1
   83    86     1
   86    87     1
   86    88     1
   88    89     1
   88    90     1
   90    91     1
   90    92     1
   90    93     1
   93    94     1
   93    95     1
   93    96     1
   97    98     1
   97    99     1
   97   100     1
  100   101     1
  100   102     1
  100   103     1
  103   104     1
  103   105     1
  103   106     1
  106   107     1
  106   108     1
  106   109     1
  109   110     1
  109   111     1
  109   112     1
  112   113     1
  112   114     1
  112   115     1
  115   116     1
  115   117     1
  115   118     1
  118   119     1
  118   120     1
  118   121     1
  121   122     1
  121   123     1
  121   124     1
  124   125     1
  124   126     1
  124   127     1
  127   128     1
  127   129     1
  127   130     1
  130   131     1
  130   132     1
  130   133     1
  133   134     1
  133   135     1
  133   136     1
  136   137     1
  136   138     1
  136   139     1
  139   140     1
  139   141     1
  139   142     1
  142   143     1
  142   144     1
  142   145     1

[ pairs ]
; ai	aj	funct	c6	c12 or
; ai	aj	funct	fudgeQQ	q1	q2	c6	c12
    1     8     1
    1    10     1
    1    11     1
    1    13     1
    1    18     1
    1    19     1
    1    23     1
    2     4     1
    2     6     1
    2     7     1
    2     9     1
    2    17     1
    2    22     1
    2    26     1
    3     6     1
    3     7     1
    3     9     1
    3    17     1
    3    22     1
    3    26     1
    4     5     1
    4    21     1
    5    12     1
    5    14     1
    5    15     1
    5    17     1
    5    22     1
    5    26     1
    6     8     1
    6    10     1
    6    11     1
    6    13     1
    6    21     1
    7    10     1
    7    11     1
    7    13     1
    7    21     1
    8     9     1
    9    16     1
    9    18     1
    9    19     1
    9    21     1
   10    12     1
   10    14     1
   10    15     1
   10    17     1
   11    14     1
   11    15     1
   11    17     1
   12    13     1
   13    20     1
   13    22     1
   13    26     1
   14    16     1
   14    18     1
   14    19     1
   14    21     1
   15    18     1
   15    19     1
   15    21     1
   16    17     1
   17    23     1
   18    20     1
   18    22     1
   18    26     1
   19    22     1
   19    26     1
   20    21     1
   21    24     1
   21    25     1
   21    27     1
   22    23     1
   23    29     1
   23    30     1
   23    31     1
   24    28     1
   25    28     1
   26    28     1
   27    32     1
   27    33     1
   27    39     1
   28    34     1
   28    40     1
   28    41     1
   28    42     1
   29    32     1
   29    33     1
   29    39     1
   30    32     1
   30    33     1
   30    39     1
   31    35     1
   31    36     1
   31    43     1
   32    34     1
   32    40     1
   32    41     1
   32    42     1
   33    37     1
   33    38     1
   33    40     1
   33    41     1
   33    42     1
   33    48     1
   34    39     1
   34    49     1
   34    50     1
   34    51     1
   35    37     1
   35    38     1
   35    48     1
   36    52     1
   36    53     1
   37    49     1
   37    50     1
   37    51     1
   38    49     1
   38    50     1
   38    51     1
   39    44     1
   39    45     1
   40    43     1
   41    43     1
   42    46     1
   42    47     1
   42    97     1
   43    98     1
   43    99     1
   43   100     1
   44    46     1
   44    47     1
   44    97     1
   45   101     1
   45   102     1
   45   103     1
   46    98     1
   46    99     1
   46   100     1
   47    98     1
   47    99     1
   47   100     1
   48    54     1
   48    55     1
   49    52     1
   49    53     1
   50    52     1
   50    53     1
   51    56     1
   51    57     1
   51    58     1
   52    54     1
   52    55     1
   53    59     1
   53    60     1
   54    56     1
   54    57     1
   54    58     1
   55    61     1
   55    62     1
   56    59     1
   56    60     1
   57    59     1
   57    60     1
   58    63     1
   58    64     1
   58    65     1
   59    61     1
   59    62     1
   60    66     1
   60    67     1
   61    63     1
   61    64     1
   61    65     1
   62    68     1
   62    69     1
   63    66     1
   63    67     1
   64    66     1
   64    67     1
   65    70     1
   65    71     1
   65    72     1
   66    68     1
   66    69     1
   67    73     1
   67    74     1
   68    70     1
   68    71     1
   68    72     1
   69    75     1
   69    76     1
   70    73     1
   70    74     1
   71    73     1
   71    74     1
   72    77     1
   72    78     1
   72    79     1
   73    75     1
   73    76     1
   74    80     1
   74    81     1
   75    77     1
   75    78     1
   75    79     1
   76    82     1
   76    83     1
   77    80     1
   77    81     1
   78    80     1
   78    81     1
   79    84     1
   79    85     1
   79    86     1
   80    82     1
   80    83     1
   81    87     1
   81    88     1
   82    84     1
   82    85     1
   82    86     1
   83    89     1
   83    90     1
   84    87     1
   84    88     1
   85    87     1
   85    88     1
   86    91     1
   86    92     1
   86    93     1
   87    89     1
   87    90     1
   88    94     1
   88    95     1
   88    96     1
   89    91     1
   89    92     1
   89    93     1
   91    94     1
   91    95     1
   91    96     1
   92    94     1
   92    95     1
   92    96     1
   97   104     1
   97   105     1
   97   106     1
   98   101     1
   98   102     1
   98   103     1
   99   101     1
   99   102     1
   99   103     1
  100   107     1
  100   108     1
  100   109     1
  101   104     1
  101   105     1
  101   106     1
  102   104     1
  102   105     1
  102   106     1
  103   110     1
  103   111     1
  103   112     1
  104   107     1
  104   108     1
  104   109     1
  105   107     1
  105   108     1
  105   109     1
  106   113     1
  106   114     1
  106   115     1
  107   110     1
  107   111     1
  107   112     1
  108   110     1
  108   111     1
  108   112     1
  109   116     1
  109   117     1
  109   118     1
  110   113     1
  110   114     1
  110   115     1
  111   113     1
  111   114     1
  111   115     1
  112   119     1
  112   120     1
  112   121     1
  113   116     1
  113   117     1
  113   118     1
  114   116     1
  114   117     1
  114   118     1
  115   122     1
  115   123     1
  115   124     1
  116   119     1
  116   120     1
  116   121     1
  117   119     1
  117   120     1
  117   121     1
  118   125     1
  118   126     1
  118   127     1
  119   122     1
  119   123     1
  119   124     1
  120   122     1
  120   123     1
  120   124     1
  121   128     1
  121   129     1
  121   130     1
  122   125     1
  122   126     1
  122   127     1
  123   125     1
  123   126     1
  123   127     1
  124   131     1
  124   132     1
  124   133     1
  125   128     1
  125   129     1
  125   130     1
  126   128     1
  126   129     1
  126   130     1
  127   134     1
  127   135     1
  127   136     1
  128   131     1
  128   132     1
  128   133     1
  129   131     1
  129   132     1
  129   133     1
  130   137     1
  130   138     1
  130   139     1
  131   134     1
  131   135     1
  131   136     1
  132   134     1
  132   135     1
  132   136     1
  133   140     1
  133   141     1
  133   142     1
  134   137     1
  134   138     1
  134   139     1
  135   137     1
  135   138     1
  135   139     1
  136   143     1
  136   144     1
  136   145     1
  137   140     1
  137   141     1
  137   142     1
  138   140     1
  138   141     1
  138   142     1
  140   143     1
  140   144     1
  140   145     1
  141   143     1
  141   144     1
  141   145     1

[ angles ] 
; ai	aj	ak	funct	th0	cth	S0	Kub
    2     1     3     5
    2     1     5     5
    2     1    21     5
    3     1     5     5
    3     1    21     5
    5     1    21     5
    1     3     4     5
    1     5     6     5
    1     5     7     5
    1     5     9     5
    6     5     7     5
    6     5     9     5
    7     5     9     5
    5     7     8     5
    5     9    10     5
    5     9    11     5
    5     9    13     5
   10     9    11     5
   10     9    13     5
   11     9    13     5
    9    11    12     5
    9    13    14     5
    9    13    15     5
    9    13    17     5
   14    13    15     5
   14    13    17     5
   15    13    17     5
   13    15    16     5
   13    17    18     5
   13    17    19     5
   13    17    21     5
   18    17    19     5
   18    17    21     5
   19    17    21     5
   17    19    20     5
    1    21    17     5
    1    21    22     5
    1    21    26     5
   17    21    22     5
   17    21    26     5
   22    21    26     5
   24    23    25     5
   24    23    26     5
   24    23    27     5
   25    23    26     5
   25    23    27     5
   26    23    27     5
   21    26    23     5
   23    27    28     5
   27    28    29     5
   27    28    30     5
   27    28    31     5
   29    28    30     5
   29    28    31     5
   30    28    31     5
   28    31    32     5
   28    31    33     5
   28    31    39     5
   32    31    33     5
   32    31    39     5
   33    31    39     5
   31    33    34     5
   33    34    35     5
   33    34    36     5
   35    34    36     5
   34    36    37     5
   34    36    38     5
   34    36    48     5
   37    36    38     5
   37    36    48     5
   38    36    48     5
   31    39    40     5
   31    39    41     5
   31    39    42     5
   40    39    41     5
   40    39    42     5
   41    39    42     5
   39    42    43     5
   42    43    44     5
   42    43    45     5
   44    43    45     5
   43    45    46     5
   43    45    47     5
   43    45    97     5
   46    45    47     5
   46    45    97     5
   47    45    97     5
   36    48    49     5
   36    48    50     5
   36    48    51     5
   49    48    50     5
   49    48    51     5
   50    48    51     5
   48    51    52     5
   48    51    53     5
   52    51    53     5
   51    53    54     5
   51    53    55     5
   54    53    55     5
   53    55    56     5
   53    55    57     5
   53    55    58     5
   56    55    57     5
   56    55    58     5
   57    55    58     5
   55    58    59     5
   55    58    60     5
   59    58    60     5
   58    60    61     5
   58    60    62     5
   61    60    62     5
   60    62    63     5
   60    62    64     5
   60    62    65     5
   63    62    64     5
   63    62    65     5
   64    62    65     5
   62    65    66     5
   62    65    67     5
   66    65    67     5
   65    67    68     5
   65    67    69     5
   68    67    69     5
   67    69    70     5
   67    69    71     5
   67    69    72     5
   70    69    71     5
   70    69    72     5
   71    69    72     5
   69    72    73     5
   69    72    74     5
   73    72    74     5
   72    74    75     5
   72    74    76     5
   75    74    76     5
   74    76    77     5
   74    76    78     5
   74    76    79     5
   77    76    78     5
   77    76    79     5
   78    76    79     5
   76    79    80     5
   76    79    81     5
   80    79    81     5
   79    81    82     5
   79    81    83     5
   82    81    83     5
   81    83    84     5
   81    83    85     5
   81    83    86     5
   84    83    85     5
   84    83    86     5
   85    83    86     5
   83    86    87     5
   83    86    88     5
   87    86    88     5
   86    88    89     5
   86    88    90     5
   89    88    90     5
   88    90    91     5
   88    90    92     5
   88    90    93     5
   91    90    92     5
   91    90    93     5
   92    90    93     5
   90    93    94     5
   90    93    95     5
   90    93    96     5
   94    93    95     5
   94    93    96     5
   95    93    96     5
   45    97    98     5
   45    97    99     5
   45    97   100     5
   98    97    99     5
   98    97   100     5
   99    97   100     5
   97   100   101     5
   97   100   102     5
   97   100   103     5
  101   100   102     5
  101   100   103     5
  102   100   103     5
  100   103   104     5
  100   103   105     5
  100   103   106     5
  104   103   105     5
  104   103   106     5
  105   103   106     5
  103   106   107     5
  103   106   108     5
  103   106   109     5
  107   106   108     5
  107   106   109     5
  108   106   109     5
  106   109   110     5
  106   109   111     5
  106   109   112     5
  110   109   111     5
  110   109   112     5
  111   109   112     5
  109   112   113     5
  109   112   114     5
  109   112   115     5
  113   112   114     5
  113   112   115     5
  114   112   115     5
  112   115   116     5
  112   115   117     5
  112   115   118     5
  116   115   117     5
  116   115   118     5
  117   115   118     5
  115   118   119     5
  115   118   120     5
  115   118   121     5
  119   118   120     5
  119   118   121     5
  120   118   121     5
  118   121   122     5
  118   121   123     5
  118   121   124     5
  122   121   123     5
  122   121   124     5
  123   121   124     5
  121   124   125     5
  121   124   126     5
  121   124   127     5
  125   124   126     5
  125   124   127     5
  126   124   127     5
  124   127   128     5
  124   127   129     5
  124   127   130     5
  128   127   129     5
  128   127   130     5
  129   127   130     5
  127   130   131     5
  127   130   132     5
  127   130   133     5
  131   130   132     5
  131   130   133     5
  132   130   133     5
  130   133   134     5
  130   133   135     5
  130   133   136     5
  134   133   135     5
  134   133   136     5
  135   133   136     5
  133   136   137     5
  133   136   138     5
  133   136   139     5
  137   136   138     5
  137   136   139     5
  138   136   139     5
  136   139   140     5
  136   139   141     5
  136   139   142     5
  140   139   141     5
  140   139   142     5
  141   139   142     5
  139   142   143     5
  139   142   144     5
  139   142   145     5
  143   142   144     5
  143   142   145     5
  144   142   145     5

[ dihedrals ]
; ai	aj	ak	al	funct	phi0	cp	mult
    2     1     3     4     9
    2     1     5     6     9
    2     1     5     7     9
    2     1     5     9     9
    3     1     5     6     9
    3     1     5     7     9
    3     1     5     9     9
    2     1    21    17     9
    2     1    21    22     9
    2     1    21    26     9
    3     1    21    17     9
    3     1    21    22     9
    3     1    21    26     9
    5     1    21    17     9
    5     1    21    22     9
    5     1    21    26     9
    4     3     1     5     9
    4     3     1    21     9
    6     5     1    21     9
    7     5     1    21     9
    9     5     1    21     9
    1     5     7     8     9
    6     5     7     8     9
    1     5     9    10     9
    1     5     9    11     9
    1     5     9    13     9
    6     5     9    10     9
    6     5     9    11     9
    6     5     9    13     9
    7     5     9    10     9
    7     5     9    11     9
    7     5     9    13     9
    8     7     5     9     9
    5     9    11    12     9
   10     9    11    12     9
    5     9    13    14     9
    5     9    13    15     9
    5     9    13    17     9
   10     9    13    14     9
   10     9    13    15     9
   10     9    13    17     9
   11     9    13    14     9
   11     9    13    15     9
   11     9    13    17     9
   12    11     9    13     9
    9    13    15    16     9
   14    13    15    16     9
    9    13    17    18     9
    9    13    17    19     9
    9    13    17    21     9
   14    13    17    18     9
   14    13    17    19     9
   14    13    17    21     9
   15    13    17    18     9
   15    13    17    19     9
   15    13    17    21     9
   16    15    13    17     9
   13    17    19    20     9
   18    17    19    20     9
   13    17    21    22     9
   13    17    21    26     9
   18    17    21    22     9
   18    17    21    26     9
   19    17    21    22     9
   19    17    21    26     9
   20    19    17    21     9
    1    21    17    13     9
    1    21    17    18     9
    1    21    17    19     9
    1    21    26    23     9
   17    21    26    23     9
   22    21    26    23     9
   24    23    27    28     9
   25    23    27    28     9
   26    23    27    28     9
   21    26    23    24     9
   21    26    23    25     9
   21    26    23    27     9
   23    27    28    29     9
   23    27    28    30     9
   23    27    28    31     9
   27    28    31    32     9
   27    28    31    33     9
   27    28    31    39     9
   29    28    31    32     9
   29    28    31    33     9
   29    28    31    39     9
   30    28    31    32     9
   30    28    31    33     9
   30    28    31    39     9
   28    31    33    34     9
   32    31    33    34     9
   28    31    39    40     9
   28    31    39    41     9
   28    31    39    42     9
   32    31    39    40     9
   32    31    39    41     9
   32    31    39    42     9
   33    31    39    40     9
   33    31    39    41     9
   33    31    39    42     9
   34    33    31    39     9
   31    33    34    35     9
   31    33    34    36     9
   33    34    36    37     9
   33    34    36    38     9
   33    34    36    48     9
   35    34    36    37     9
   35    34    36    38     9
   35    34    36    48     9
   34    36    48    49     9
   34    36    48    50     9
   34    36    48    51     9
   37    36    48    49     9
   37    36    48    50     9
   37    36    48    51     9
   38    36    48    49     9
   38    36    48    50     9
   38    36    48    51     9
   31    39    42    43     9
   40    39    42    43     9
   41    39    42    43     9
   39    42    43    44     9
   39    42    43    45     9
   42    43    45    46     9
   42    43    45    47     9
   42    43    45    97     9
   44    43    45    46     9
   44    43    45    47     9
   44    43    45    97     9
   43    45    97    98     9
   43    45    97    99     9
   43    45    97   100     9
   46    45    97    98     9
   46    45    97    99     9
   46    45    97   100     9
   47    45    97    98     9
   47    45    97    99     9
   47    45    97   100     9
   36    48    51    52     9
   36    48    51    53     9
   49    48    51    52     9
   49    48    51    53     9
   50    48    51    52     9
   50    48    51    53     9
   48    51    53    54     9
   48    51    53    55     9
   52    51    53    54     9
   52    51    53    55     9
   51    53    55    56     9
   51    53    55    57     9
   51    53    55    58     9
   54    53    55    56     9
   54    53    55    57     9
   54    53    55    58     9
   53    55    58    59     9
   53    55    58    60     9
   56    55    58    59     9
   56    55    58    60     9
   57    55    58    59     9
   57    55    58    60     9
   55    58    60    61     9
   55    58    60    62     9
   59    58    60    61     9
   59    58    60    62     9
   58    60    62    63     9
   58    60    62    64     9
   58    60    62    65     9
   61    60    62    63     9
   61    60    62    64     9
   61    60    62    65     9
   60    62    65    66     9
   60    62    65    67     9
   63    62    65    66     9
   63    62    65    67     9
   64    62    65    66     9
   64    62    65    67     9
   62    65    67    68     9
   62    65    67    69     9
   66    65    67    68     9
   66    65    67    69     9
   65    67    69    70     9
   65    67    69    71     9
   65    67    69    72     9
   68    67    69    70     9
   68    67    69    71     9
   68    67    69    72     9
   67    69    72    73     9
   67    69    72    74     9
   70    69    72    73     9
   70    69    72    74     9
   71    69    72    73     9
   71    69    72    74     9
   69    72    74    75     9
   69    72    74    76     9
   73    72    74    75     9
   73    72    74    76     9
   72    74    76    77     9
   72    74    76    78     9
   72    74    76    79     9
   75    74    76    77     9
   75    74    76    78     9
   75    74    76    79     9
   74    76    79    80     9
   74    76    79    81     9
   77    76    79    80     9
   77    76    79    81     9
   78    76    79    80     9
   78    76    79    81     9
   76    79    81    82     9
   76    79    81    83     9
   80    79    81    82     9
   80    79    81    83     9
   79    81    83    84     9
   79    81    83    85     9
   79    81    83    86     9
   82    81    83    84     9
   82    81    83    85     9
   82    81    83    86     9
   81    83    86    87     9
   81    83    86    88     9
   84    83    86    87     9
   84    83    86    88     9
   85    83    86    87     9
   85    83    86    88     9
   83    86    88    89     9
   83    86    88    90     9
   87    86    88    89     9
   87    86    88    90     9
   86    88    90    91     9
   86    88    90    92     9
   86    88    90    93     9
   89    88    90    91     9
   89    88    90    92     9
   89    88    90    93     9
   88    90    93    94     9
   88    90    93    95     9
   88    90    93    96     9
   91    90    93    94     9
   91    90    93    95     9
   91    90    93    96     9
   92    90    93    94     9
   92    90    93    95     9
   92    90    93    96     9
   45    97   100   101     9
   45    97   100   102     9
   45    97   100   103     9
   98    97   100   101     9
   98    97   100   102     9
   98    97   100   103     9
   99    97   100   101     9
   99    97   100   102     9
   99    97   100   103     9
   97   100   103   104     9
   97   100   103   105     9
   97   100   103   106     9
  101   100   103   104     9
  101   100   103   105     9
  101   100   103   106     9
  102   100   103   104     9
  102   100   103   105     9
  102   100   103   106     9
  100   103   106   107     9
  100   103   106   108     9
  100   103   106   109     9
  104   103   106   107     9
  104   103   106   108     9
  104   103   106   109     9
  105   103   106   107     9
  105   103   106   108     9
  105   103   106   109     9
  103   106   109   110     9
  103   106   109   111     9
  103   106   109   112     9
  107   106   109   110     9
  107   106   109   111     9
  107   106   109   112     9
  108   106   109   110     9
  108   106   109   111     9
  108   106   109   112     9
  106   109   112   113     9
  106   109   112   114     9
  106   109   112   115     9
  110   109   112   113     9
  110   109   112   114     9
  110   109   112   115     9
  111   109   112   113     9
  111   109   112   114     9
  111   109   112   115     9
  109   112   115   116     9
  109   112   115   117     9
  109   112   115   118     9
  113   112   115   116     9
  113   112   115   117     9
  113   112   115   118     9
  114   112   115   116     9
  114   112   115   117     9
  114   112   115   118     9
  112   115   118   119     9
  112   115   118   120     9
  112   115   118   121     9
  116   115   118   119     9
  116   115   118   120     9
  116   115   118   121     9
  117   115   118   119     9
  117   115   118   120     9
  117   115   118   121     9
  115   118   121   122     9
  115   118   121   123     9
  115   118   121   124     9
  119   118   121   122     9
  119   118   121   123     9
  119   118   121   124     9
  120   118   121   122     9
  120   118   121   123     9
  120   118   121   124     9
  118   121   124   125     9
  118   121   124   126     9
  118   121   124   127     9
  122   121   124   125     9
  122   121   124   126     9
  122   121   124   127     9
  123   121   124   125     9
  123   121   124   126     9
  123   121   124   127     9
  121   124   127   128     9
  121   124   127   129     9
  121   124   127   130     9
  125   124   127   128     9
  125   124   127   129     9
  125   124   127   130     9
  126   124   127   128     9
  126   124   127   129     9
  126   124   127   130     9
  124   127   130   131     9
  124   127   130   132     9
  124   127   130   133     9
  128   127   130   131     9
  128   127   130   132     9
  128   127   130   133     9
  129   127   130   131     9
  129   127   130   132     9
  129   127   130   133     9
  127   130   133   134     9
  127   130   133   135     9
  127   130   133   136     9
  131   130   133   134     9
  131   130   133   135     9
  131   130   133   136     9
  132   130   133   134     9
  132   130   133   135     9
  132   130   133   136     9
  130   133   136   137     9
  130   133   136   138     9
  130   133   136   139     9
  134   133   136   137     9
  134   133   136   138     9
  134   133   136   139     9
  135   133   136   137     9
  135   133   136   138     9
  135   133   136   139     9
  133   136   139   140     9
  133   136   139   141     9
  133   136   139   142     9
  137   136   139   140     9
  137   136   139   141     9
  137   136   139   142     9
  138   136   139   140     9
  138   136   139   141     9
  138   136   139   142     9
  136   139   142   143     9
  136   139   142   144     9
  136   139   142   145     9
  140   139   142   143     9
  140   139   142   144     9
  140   139   142   145     9
  141   139   142   143     9
  141   139   142   144     9
  141   139   142   145     9

[ dihedrals ]
; ai	aj	ak	al	funct	q0	cq
   34    33    36    35     2
   43    42    45    44     2

#ifdef POSRES
[ position_restraints ]
   23     1     0.0             0.0            POSRES_FC_LIPID
#endif

#ifdef DIHRES
[ dihedral_restraints ]
    1    21    17    13     1     60.0      2.5       DIHRES_FC
   21    17    13     9     1    -60.0      2.5       DIHRES_FC
   17    13     9     5     1     60.0      2.5       DIHRES_FC
   13     9     5     1     1    -60.0      2.5       DIHRES_FC
    9     5     1    21     1     60.0      2.5       DIHRES_FC
    5     1    21    17     1    -60.0      2.5       DIHRES_FC
   28    39    31    33     1   -120.0      2.5       DIHRES_FC
   48    51    53    55     1      0.0      0.0       DIHRES_FC
   55    58    60    62     1      0.0      0.0       DIHRES_FC
   62    65    67    69     1      0.0      0.0       DIHRES_FC
   69    72    74    76     1      0.0      0.0       DIHRES_FC
   76    79    81    83     1      0.0      0.0       DIHRES_FC
   83    86    88    90     1      0.0      0.0       DIHRES_FC
#endif
