;;
;; Generated by CHARMM-GUI FF-Converter
;;
;; Correspondance:
;; jul316@lehigh.edu or wonpil@lehigh.edu
;;
;; GROMACS topology file for SOGL
;;


[ moleculetype ]
; name	nrexcl
SOGL	     3

[ atoms ]
; nr	type	resnr	residu	atom	cgnr	charge	mass
     1       CTL2     68     SOGL     C1      1     0.050000    12.0110   ; qtot  0.050
     2       HAL2     68     SOGL     HA      2     0.090000     1.0080   ; qtot  0.140
     3       HAL2     68     SOGL     HB      3     0.090000     1.0080   ; qtot  0.230
     4        OHL     68     SOGL    O11      4    -0.650000    15.9994   ; qtot -0.420
     5        HOL     68     SOGL    HO1      5     0.420000     1.0080   ; qtot -0.000
     6       CTL1     68     SOGL     C2      6     0.170000    12.0110   ; qtot  0.170
     7       HAL1     68     SOGL     HS      7     0.090000     1.0080   ; qtot  0.260
     8        OSL     68     SOGL    O21      8    -0.490000    15.9994   ; qtot -0.230
     9         CL     68     SOGL    C21      9     0.900000    12.0110   ; qtot  0.670
    10        OBL     68     SOGL    O22     10    -0.630000    15.9994   ; qtot  0.040
    11       CTL2     68     SOGL    C22     11    -0.220000    12.0110   ; qtot -0.180
    12       HAL2     68     SOGL    H2R     12     0.090000     1.0080   ; qtot -0.090
    13       HAL2     68     SOGL    H2S     13     0.090000     1.0080   ; qtot -0.000
    14       CTL2     68     SOGL     C3     14     0.080000    12.0110   ; qtot  0.080
    15       HAL2     68     SOGL     HX     15     0.090000     1.0080   ; qtot  0.170
    16       HAL2     68     SOGL     HY     16     0.090000     1.0080   ; qtot  0.260
    17        OSL     68     SOGL    O31     17    -0.490000    15.9994   ; qtot -0.230
    18         CL     68     SOGL    C31     18     0.900000    12.0110   ; qtot  0.670
    19        OBL     68     SOGL    O32     19    -0.630000    15.9994   ; qtot  0.040
    20       CTL2     68     SOGL    C32     20    -0.220000    12.0110   ; qtot -0.180
    21       HAL2     68     SOGL    H2X     21     0.090000     1.0080   ; qtot -0.090
    22       HAL2     68     SOGL    H2Y     22     0.090000     1.0080   ; qtot -0.000
    23       CTL2     68     SOGL    C23     23    -0.180000    12.0110   ; qtot -0.180
    24       HAL2     68     SOGL    H3R     24     0.090000     1.0080   ; qtot -0.090
    25       HAL2     68     SOGL    H3S     25     0.090000     1.0080   ; qtot -0.000
    26       CTL2     68     SOGL    C24     26    -0.180000    12.0110   ; qtot -0.180
    27       HAL2     68     SOGL    H4R     27     0.090000     1.0080   ; qtot -0.090
    28       HAL2     68     SOGL    H4S     28     0.090000     1.0080   ; qtot -0.000
    29       CTL2     68     SOGL    C25     29    -0.180000    12.0110   ; qtot -0.180
    30       HAL2     68     SOGL    H5R     30     0.090000     1.0080   ; qtot -0.090
    31       HAL2     68     SOGL    H5S     31     0.090000     1.0080   ; qtot -0.000
    32       CTL2     68     SOGL    C26     32    -0.180000    12.0110   ; qtot -0.180
    33       HAL2     68     SOGL    H6R     33     0.090000     1.0080   ; qtot -0.090
    34       HAL2     68     SOGL    H6S     34     0.090000     1.0080   ; qtot -0.000
    35       CTL2     68     SOGL    C27     35    -0.180000    12.0110   ; qtot -0.180
    36       HAL2     68     SOGL    H7R     36     0.090000     1.0080   ; qtot -0.090
    37       HAL2     68     SOGL    H7S     37     0.090000     1.0080   ; qtot -0.000
    38       CTL2     68     SOGL    C28     38    -0.180000    12.0110   ; qtot -0.180
    39       HAL2     68     SOGL    H8R     39     0.090000     1.0080   ; qtot -0.090
    40       HAL2     68     SOGL    H8S     40     0.090000     1.0080   ; qtot -0.000
    41       CEL1     68     SOGL    C29     41    -0.150000    12.0110   ; qtot -0.150
    42       HEL1     68     SOGL    H91     42     0.150000     1.0080   ; qtot -0.000
    43       CEL1     68     SOGL   C210     43    -0.150000    12.0110   ; qtot -0.150
    44       HEL1     68     SOGL   H101     44     0.150000     1.0080   ; qtot -0.000
    45       CTL2     68     SOGL   C211     45    -0.180000    12.0110   ; qtot -0.180
    46       HAL2     68     SOGL   H11R     46     0.090000     1.0080   ; qtot -0.090
    47       HAL2     68     SOGL   H11S     47     0.090000     1.0080   ; qtot -0.000
    48       CTL2     68     SOGL   C212     48    -0.180000    12.0110   ; qtot -0.180
    49       HAL2     68     SOGL   H12R     49     0.090000     1.0080   ; qtot -0.090
    50       HAL2     68     SOGL   H12S     50     0.090000     1.0080   ; qtot -0.000
    51       CTL2     68     SOGL   C213     51    -0.180000    12.0110   ; qtot -0.180
    52       HAL2     68     SOGL   H13R     52     0.090000     1.0080   ; qtot -0.090
    53       HAL2     68     SOGL   H13S     53     0.090000     1.0080   ; qtot -0.000
    54       CTL2     68     SOGL   C214     54    -0.180000    12.0110   ; qtot -0.180
    55       HAL2     68     SOGL   H14R     55     0.090000     1.0080   ; qtot -0.090
    56       HAL2     68     SOGL   H14S     56     0.090000     1.0080   ; qtot -0.000
    57       CTL2     68     SOGL   C215     57    -0.180000    12.0110   ; qtot -0.180
    58       HAL2     68     SOGL   H15R     58     0.090000     1.0080   ; qtot -0.090
    59       HAL2     68     SOGL   H15S     59     0.090000     1.0080   ; qtot -0.000
    60       CTL2     68     SOGL   C216     60    -0.180000    12.0110   ; qtot -0.180
    61       HAL2     68     SOGL   H16R     61     0.090000     1.0080   ; qtot -0.090
    62       HAL2     68     SOGL   H16S     62     0.090000     1.0080   ; qtot -0.000
    63       CTL2     68     SOGL   C217     63    -0.180000    12.0110   ; qtot -0.180
    64       HAL2     68     SOGL   H17R     64     0.090000     1.0080   ; qtot -0.090
    65       HAL2     68     SOGL   H17S     65     0.090000     1.0080   ; qtot -0.000
    66       CTL3     68     SOGL   C218     66    -0.270000    12.0110   ; qtot -0.270
    67       HAL3     68     SOGL   H18R     67     0.090000     1.0080   ; qtot -0.180
    68       HAL3     68     SOGL   H18S     68     0.090000     1.0080   ; qtot -0.090
    69       HAL3     68     SOGL   H18T     69     0.090000     1.0080   ; qtot -0.000
    70       CTL2     68     SOGL    C33     70    -0.180000    12.0110   ; qtot -0.180
    71       HAL2     68     SOGL    H3X     71     0.090000     1.0080   ; qtot -0.090
    72       HAL2     68     SOGL    H3Y     72     0.090000     1.0080   ; qtot -0.000
    73       CTL2     68     SOGL    C34     73    -0.180000    12.0110   ; qtot -0.180
    74       HAL2     68     SOGL    H4X     74     0.090000     1.0080   ; qtot -0.090
    75       HAL2     68     SOGL    H4Y     75     0.090000     1.0080   ; qtot -0.000
    76       CTL2     68     SOGL    C35     76    -0.180000    12.0110   ; qtot -0.180
    77       HAL2     68     SOGL    H5X     77     0.090000     1.0080   ; qtot -0.090
    78       HAL2     68     SOGL    H5Y     78     0.090000     1.0080   ; qtot -0.000
    79       CTL2     68     SOGL    C36     79    -0.180000    12.0110   ; qtot -0.180
    80       HAL2     68     SOGL    H6X     80     0.090000     1.0080   ; qtot -0.090
    81       HAL2     68     SOGL    H6Y     81     0.090000     1.0080   ; qtot -0.000
    82       CTL2     68     SOGL    C37     82    -0.180000    12.0110   ; qtot -0.180
    83       HAL2     68     SOGL    H7X     83     0.090000     1.0080   ; qtot -0.090
    84       HAL2     68     SOGL    H7Y     84     0.090000     1.0080   ; qtot -0.000
    85       CTL2     68     SOGL    C38     85    -0.180000    12.0110   ; qtot -0.180
    86       HAL2     68     SOGL    H8X     86     0.090000     1.0080   ; qtot -0.090
    87       HAL2     68     SOGL    H8Y     87     0.090000     1.0080   ; qtot -0.000
    88       CTL2     68     SOGL    C39     88    -0.180000    12.0110   ; qtot -0.180
    89       HAL2     68     SOGL    H9X     89     0.090000     1.0080   ; qtot -0.090
    90       HAL2     68     SOGL    H9Y     90     0.090000     1.0080   ; qtot -0.000
    91       CTL2     68     SOGL   C310     91    -0.180000    12.0110   ; qtot -0.180
    92       HAL2     68     SOGL   H10X     92     0.090000     1.0080   ; qtot -0.090
    93       HAL2     68     SOGL   H10Y     93     0.090000     1.0080   ; qtot -0.000
    94       CTL2     68     SOGL   C311     94    -0.180000    12.0110   ; qtot -0.180
    95       HAL2     68     SOGL   H11X     95     0.090000     1.0080   ; qtot -0.090
    96       HAL2     68     SOGL   H11Y     96     0.090000     1.0080   ; qtot -0.000
    97       CTL2     68     SOGL   C312     97    -0.180000    12.0110   ; qtot -0.180
    98       HAL2     68     SOGL   H12X     98     0.090000     1.0080   ; qtot -0.090
    99       HAL2     68     SOGL   H12Y     99     0.090000     1.0080   ; qtot -0.000
   100       CTL2     68     SOGL   C313    100    -0.180000    12.0110   ; qtot -0.180
   101       HAL2     68     SOGL   H13X    101     0.090000     1.0080   ; qtot -0.090
   102       HAL2     68     SOGL   H13Y    102     0.090000     1.0080   ; qtot -0.000
   103       CTL2     68     SOGL   C314    103    -0.180000    12.0110   ; qtot -0.180
   104       HAL2     68     SOGL   H14X    104     0.090000     1.0080   ; qtot -0.090
   105       HAL2     68     SOGL   H14Y    105     0.090000     1.0080   ; qtot -0.000
   106       CTL2     68     SOGL   C315    106    -0.180000    12.0110   ; qtot -0.180
   107       HAL2     68     SOGL   H15X    107     0.090000     1.0080   ; qtot -0.090
   108       HAL2     68     SOGL   H15Y    108     0.090000     1.0080   ; qtot -0.000
   109       CTL2     68     SOGL   C316    109    -0.180000    12.0110   ; qtot -0.180
   110       HAL2     68     SOGL   H16X    110     0.090000     1.0080   ; qtot -0.090
   111       HAL2     68     SOGL   H16Y    111     0.090000     1.0080   ; qtot -0.000
   112       CTL2     68     SOGL   C317    112    -0.180000    12.0110   ; qtot -0.180
   113       HAL2     68     SOGL   H17X    113     0.090000     1.0080   ; qtot -0.090
   114       HAL2     68     SOGL   H17Y    114     0.090000     1.0080   ; qtot -0.000
   115       CTL3     68     SOGL   C318    115    -0.270000    12.0110   ; qtot -0.270
   116       HAL3     68     SOGL   H18X    116     0.090000     1.0080   ; qtot -0.180
   117       HAL3     68     SOGL   H18Y    117     0.090000     1.0080   ; qtot -0.090
   118       HAL3     68     SOGL   H18Z    118     0.090000     1.0080   ; qtot -0.000

[ bonds ]
; ai	aj	funct	b0	Kb
    1     2     1
    1     3     1
    1     4     1
    1     6     1
    4     5     1
    6     7     1
    6     8     1
    6    14     1
    8     9     1
    9    10     1
    9    11     1
   11    12     1
   11    13     1
   11    23     1
   14    15     1
   14    16     1
   14    17     1
   17    18     1
   18    19     1
   18    20     1
   20    21     1
   20    22     1
   20    70     1
   23    24     1
   23    25     1
   23    26     1
   26    27     1
   26    28     1
   26    29     1
   29    30     1
   29    31     1
   29    32     1
   32    33     1
   32    34     1
   32    35     1
   35    36     1
   35    37     1
   35    38     1
   38    39     1
   38    40     1
   38    41     1
   41    42     1
   41    43     1
   43    44     1
   43    45     1
   45    46     1
   45    47     1
   45    48     1
   48    49     1
   48    50     1
   48    51     1
   51    52     1
   51    53     1
   51    54     1
   54    55     1
   54    56     1
   54    57     1
   57    58     1
   57    59     1
   57    60     1
   60    61     1
   60    62     1
   60    63     1
   63    64     1
   63    65     1
   63    66     1
   66    67     1
   66    68     1
   66    69     1
   70    71     1
   70    72     1
   70    73     1
   73    74     1
   73    75     1
   73    76     1
   76    77     1
   76    78     1
   76    79     1
   79    80     1
   79    81     1
   79    82     1
   82    83     1
   82    84     1
   82    85     1
   85    86     1
   85    87     1
   85    88     1
   88    89     1
   88    90     1
   88    91     1
   91    92     1
   91    93     1
   91    94     1
   94    95     1
   94    96     1
   94    97     1
   97    98     1
   97    99     1
   97   100     1
  100   101     1
  100   102     1
  100   103     1
  103   104     1
  103   105     1
  103   106     1
  106   107     1
  106   108     1
  106   109     1
  109   110     1
  109   111     1
  109   112     1
  112   113     1
  112   114     1
  112   115     1
  115   116     1
  115   117     1
  115   118     1

[ pairs ]
; ai	aj	funct	c6	c12 or
; ai	aj	funct	fudgeQQ	q1	q2	c6	c12
    1     9     1
    1    15     1
    1    16     1
    1    17     1
    2     5     1
    2     7     1
    2     8     1
    2    14     1
    3     5     1
    3     7     1
    3     8     1
    3    14     1
    4     7     1
    4     8     1
    4    14     1
    5     6     1
    6    10     1
    6    11     1
    6    18     1
    7     9     1
    7    15     1
    7    16     1
    7    17     1
    8    12     1
    8    13     1
    8    15     1
    8    16     1
    8    17     1
    8    23     1
    9    14     1
    9    24     1
    9    25     1
    9    26     1
   10    12     1
   10    13     1
   10    23     1
   11    27     1
   11    28     1
   11    29     1
   12    24     1
   12    25     1
   12    26     1
   13    24     1
   13    25     1
   13    26     1
   14    19     1
   14    20     1
   15    18     1
   16    18     1
   17    21     1
   17    22     1
   17    70     1
   18    71     1
   18    72     1
   18    73     1
   19    21     1
   19    22     1
   19    70     1
   20    74     1
   20    75     1
   20    76     1
   21    71     1
   21    72     1
   21    73     1
   22    71     1
   22    72     1
   22    73     1
   23    30     1
   23    31     1
   23    32     1
   24    27     1
   24    28     1
   24    29     1
   25    27     1
   25    28     1
   25    29     1
   26    33     1
   26    34     1
   26    35     1
   27    30     1
   27    31     1
   27    32     1
   28    30     1
   28    31     1
   28    32     1
   29    36     1
   29    37     1
   29    38     1
   30    33     1
   30    34     1
   30    35     1
   31    33     1
   31    34     1
   31    35     1
   32    39     1
   32    40     1
   32    41     1
   33    36     1
   33    37     1
   33    38     1
   34    36     1
   34    37     1
   34    38     1
   35    42     1
   35    43     1
   36    39     1
   36    40     1
   36    41     1
   37    39     1
   37    40     1
   37    41     1
   38    44     1
   38    45     1
   39    42     1
   39    43     1
   40    42     1
   40    43     1
   41    46     1
   41    47     1
   41    48     1
   42    44     1
   42    45     1
   43    49     1
   43    50     1
   43    51     1
   44    46     1
   44    47     1
   44    48     1
   45    52     1
   45    53     1
   45    54     1
   46    49     1
   46    50     1
   46    51     1
   47    49     1
   47    50     1
   47    51     1
   48    55     1
   48    56     1
   48    57     1
   49    52     1
   49    53     1
   49    54     1
   50    52     1
   50    53     1
   50    54     1
   51    58     1
   51    59     1
   51    60     1
   52    55     1
   52    56     1
   52    57     1
   53    55     1
   53    56     1
   53    57     1
   54    61     1
   54    62     1
   54    63     1
   55    58     1
   55    59     1
   55    60     1
   56    58     1
   56    59     1
   56    60     1
   57    64     1
   57    65     1
   57    66     1
   58    61     1
   58    62     1
   58    63     1
   59    61     1
   59    62     1
   59    63     1
   60    67     1
   60    68     1
   60    69     1
   61    64     1
   61    65     1
   61    66     1
   62    64     1
   62    65     1
   62    66     1
   64    67     1
   64    68     1
   64    69     1
   65    67     1
   65    68     1
   65    69     1
   70    77     1
   70    78     1
   70    79     1
   71    74     1
   71    75     1
   71    76     1
   72    74     1
   72    75     1
   72    76     1
   73    80     1
   73    81     1
   73    82     1
   74    77     1
   74    78     1
   74    79     1
   75    77     1
   75    78     1
   75    79     1
   76    83     1
   76    84     1
   76    85     1
   77    80     1
   77    81     1
   77    82     1
   78    80     1
   78    81     1
   78    82     1
   79    86     1
   79    87     1
   79    88     1
   80    83     1
   80    84     1
   80    85     1
   81    83     1
   81    84     1
   81    85     1
   82    89     1
   82    90     1
   82    91     1
   83    86     1
   83    87     1
   83    88     1
   84    86     1
   84    87     1
   84    88     1
   85    92     1
   85    93     1
   85    94     1
   86    89     1
   86    90     1
   86    91     1
   87    89     1
   87    90     1
   87    91     1
   88    95     1
   88    96     1
   88    97     1
   89    92     1
   89    93     1
   89    94     1
   90    92     1
   90    93     1
   90    94     1
   91    98     1
   91    99     1
   91   100     1
   92    95     1
   92    96     1
   92    97     1
   93    95     1
   93    96     1
   93    97     1
   94   101     1
   94   102     1
   94   103     1
   95    98     1
   95    99     1
   95   100     1
   96    98     1
   96    99     1
   96   100     1
   97   104     1
   97   105     1
   97   106     1
   98   101     1
   98   102     1
   98   103     1
   99   101     1
   99   102     1
   99   103     1
  100   107     1
  100   108     1
  100   109     1
  101   104     1
  101   105     1
  101   106     1
  102   104     1
  102   105     1
  102   106     1
  103   110     1
  103   111     1
  103   112     1
  104   107     1
  104   108     1
  104   109     1
  105   107     1
  105   108     1
  105   109     1
  106   113     1
  106   114     1
  106   115     1
  107   110     1
  107   111     1
  107   112     1
  108   110     1
  108   111     1
  108   112     1
  109   116     1
  109   117     1
  109   118     1
  110   113     1
  110   114     1
  110   115     1
  111   113     1
  111   114     1
  111   115     1
  113   116     1
  113   117     1
  113   118     1
  114   116     1
  114   117     1
  114   118     1

[ angles ] 
; ai	aj	ak	funct	th0	cth	S0	Kub
    2     1     3     5
    2     1     4     5
    2     1     6     5
    3     1     4     5
    3     1     6     5
    4     1     6     5
    1     4     5     5
    1     6     7     5
    1     6     8     5
    1     6    14     5
    7     6     8     5
    7     6    14     5
    8     6    14     5
    6     8     9     5
    8     9    10     5
    8     9    11     5
   10     9    11     5
    9    11    12     5
    9    11    13     5
    9    11    23     5
   12    11    13     5
   12    11    23     5
   13    11    23     5
    6    14    15     5
    6    14    16     5
    6    14    17     5
   15    14    16     5
   15    14    17     5
   16    14    17     5
   14    17    18     5
   17    18    19     5
   17    18    20     5
   19    18    20     5
   18    20    21     5
   18    20    22     5
   18    20    70     5
   21    20    22     5
   21    20    70     5
   22    20    70     5
   11    23    24     5
   11    23    25     5
   11    23    26     5
   24    23    25     5
   24    23    26     5
   25    23    26     5
   23    26    27     5
   23    26    28     5
   23    26    29     5
   27    26    28     5
   27    26    29     5
   28    26    29     5
   26    29    30     5
   26    29    31     5
   26    29    32     5
   30    29    31     5
   30    29    32     5
   31    29    32     5
   29    32    33     5
   29    32    34     5
   29    32    35     5
   33    32    34     5
   33    32    35     5
   34    32    35     5
   32    35    36     5
   32    35    37     5
   32    35    38     5
   36    35    37     5
   36    35    38     5
   37    35    38     5
   35    38    39     5
   35    38    40     5
   35    38    41     5
   39    38    40     5
   39    38    41     5
   40    38    41     5
   38    41    42     5
   38    41    43     5
   42    41    43     5
   41    43    44     5
   41    43    45     5
   44    43    45     5
   43    45    46     5
   43    45    47     5
   43    45    48     5
   46    45    47     5
   46    45    48     5
   47    45    48     5
   45    48    49     5
   45    48    50     5
   45    48    51     5
   49    48    50     5
   49    48    51     5
   50    48    51     5
   48    51    52     5
   48    51    53     5
   48    51    54     5
   52    51    53     5
   52    51    54     5
   53    51    54     5
   51    54    55     5
   51    54    56     5
   51    54    57     5
   55    54    56     5
   55    54    57     5
   56    54    57     5
   54    57    58     5
   54    57    59     5
   54    57    60     5
   58    57    59     5
   58    57    60     5
   59    57    60     5
   57    60    61     5
   57    60    62     5
   57    60    63     5
   61    60    62     5
   61    60    63     5
   62    60    63     5
   60    63    64     5
   60    63    65     5
   60    63    66     5
   64    63    65     5
   64    63    66     5
   65    63    66     5
   63    66    67     5
   63    66    68     5
   63    66    69     5
   67    66    68     5
   67    66    69     5
   68    66    69     5
   20    70    71     5
   20    70    72     5
   20    70    73     5
   71    70    72     5
   71    70    73     5
   72    70    73     5
   70    73    74     5
   70    73    75     5
   70    73    76     5
   74    73    75     5
   74    73    76     5
   75    73    76     5
   73    76    77     5
   73    76    78     5
   73    76    79     5
   77    76    78     5
   77    76    79     5
   78    76    79     5
   76    79    80     5
   76    79    81     5
   76    79    82     5
   80    79    81     5
   80    79    82     5
   81    79    82     5
   79    82    83     5
   79    82    84     5
   79    82    85     5
   83    82    84     5
   83    82    85     5
   84    82    85     5
   82    85    86     5
   82    85    87     5
   82    85    88     5
   86    85    87     5
   86    85    88     5
   87    85    88     5
   85    88    89     5
   85    88    90     5
   85    88    91     5
   89    88    90     5
   89    88    91     5
   90    88    91     5
   88    91    92     5
   88    91    93     5
   88    91    94     5
   92    91    93     5
   92    91    94     5
   93    91    94     5
   91    94    95     5
   91    94    96     5
   91    94    97     5
   95    94    96     5
   95    94    97     5
   96    94    97     5
   94    97    98     5
   94    97    99     5
   94    97   100     5
   98    97    99     5
   98    97   100     5
   99    97   100     5
   97   100   101     5
   97   100   102     5
   97   100   103     5
  101   100   102     5
  101   100   103     5
  102   100   103     5
  100   103   104     5
  100   103   105     5
  100   103   106     5
  104   103   105     5
  104   103   106     5
  105   103   106     5
  103   106   107     5
  103   106   108     5
  103   106   109     5
  107   106   108     5
  107   106   109     5
  108   106   109     5
  106   109   110     5
  106   109   111     5
  106   109   112     5
  110   109   111     5
  110   109   112     5
  111   109   112     5
  109   112   113     5
  109   112   114     5
  109   112   115     5
  113   112   114     5
  113   112   115     5
  114   112   115     5
  112   115   116     5
  112   115   117     5
  112   115   118     5
  116   115   117     5
  116   115   118     5
  117   115   118     5

[ dihedrals ]
; ai	aj	ak	al	funct	phi0	cp	mult
    2     1     4     5     9
    3     1     4     5     9
    2     1     6     7     9
    2     1     6     8     9
    2     1     6    14     9
    3     1     6     7     9
    3     1     6     8     9
    3     1     6    14     9
    4     1     6     7     9
    4     1     6     8     9
    4     1     6    14     9
    5     4     1     6     9
    1     6     8     9     9
    7     6     8     9     9
    1     6    14    15     9
    1     6    14    16     9
    1     6    14    17     9
    7     6    14    15     9
    7     6    14    16     9
    7     6    14    17     9
    8     6    14    15     9
    8     6    14    16     9
    8     6    14    17     9
    9     8     6    14     9
    6     8     9    10     9
    6     8     9    11     9
    8     9    11    12     9
    8     9    11    13     9
    8     9    11    23     9
   10     9    11    12     9
   10     9    11    13     9
   10     9    11    23     9
    9    11    23    24     9
    9    11    23    25     9
    9    11    23    26     9
   12    11    23    24     9
   12    11    23    25     9
   12    11    23    26     9
   13    11    23    24     9
   13    11    23    25     9
   13    11    23    26     9
    6    14    17    18     9
   15    14    17    18     9
   16    14    17    18     9
   14    17    18    19     9
   14    17    18    20     9
   17    18    20    21     9
   17    18    20    22     9
   17    18    20    70     9
   19    18    20    21     9
   19    18    20    22     9
   19    18    20    70     9
   18    20    70    71     9
   18    20    70    72     9
   18    20    70    73     9
   21    20    70    71     9
   21    20    70    72     9
   21    20    70    73     9
   22    20    70    71     9
   22    20    70    72     9
   22    20    70    73     9
   11    23    26    27     9
   11    23    26    28     9
   11    23    26    29     9
   24    23    26    27     9
   24    23    26    28     9
   24    23    26    29     9
   25    23    26    27     9
   25    23    26    28     9
   25    23    26    29     9
   23    26    29    30     9
   23    26    29    31     9
   23    26    29    32     9
   27    26    29    30     9
   27    26    29    31     9
   27    26    29    32     9
   28    26    29    30     9
   28    26    29    31     9
   28    26    29    32     9
   26    29    32    33     9
   26    29    32    34     9
   26    29    32    35     9
   30    29    32    33     9
   30    29    32    34     9
   30    29    32    35     9
   31    29    32    33     9
   31    29    32    34     9
   31    29    32    35     9
   29    32    35    36     9
   29    32    35    37     9
   29    32    35    38     9
   33    32    35    36     9
   33    32    35    37     9
   33    32    35    38     9
   34    32    35    36     9
   34    32    35    37     9
   34    32    35    38     9
   32    35    38    39     9
   32    35    38    40     9
   32    35    38    41     9
   36    35    38    39     9
   36    35    38    40     9
   36    35    38    41     9
   37    35    38    39     9
   37    35    38    40     9
   37    35    38    41     9
   35    38    41    42     9
   35    38    41    43     9
   39    38    41    42     9
   39    38    41    43     9
   40    38    41    42     9
   40    38    41    43     9
   38    41    43    44     9
   38    41    43    45     9
   42    41    43    44     9
   42    41    43    45     9
   41    43    45    46     9
   41    43    45    47     9
   41    43    45    48     9
   44    43    45    46     9
   44    43    45    47     9
   44    43    45    48     9
   43    45    48    49     9
   43    45    48    50     9
   43    45    48    51     9
   46    45    48    49     9
   46    45    48    50     9
   46    45    48    51     9
   47    45    48    49     9
   47    45    48    50     9
   47    45    48    51     9
   45    48    51    52     9
   45    48    51    53     9
   45    48    51    54     9
   49    48    51    52     9
   49    48    51    53     9
   49    48    51    54     9
   50    48    51    52     9
   50    48    51    53     9
   50    48    51    54     9
   48    51    54    55     9
   48    51    54    56     9
   48    51    54    57     9
   52    51    54    55     9
   52    51    54    56     9
   52    51    54    57     9
   53    51    54    55     9
   53    51    54    56     9
   53    51    54    57     9
   51    54    57    58     9
   51    54    57    59     9
   51    54    57    60     9
   55    54    57    58     9
   55    54    57    59     9
   55    54    57    60     9
   56    54    57    58     9
   56    54    57    59     9
   56    54    57    60     9
   54    57    60    61     9
   54    57    60    62     9
   54    57    60    63     9
   58    57    60    61     9
   58    57    60    62     9
   58    57    60    63     9
   59    57    60    61     9
   59    57    60    62     9
   59    57    60    63     9
   57    60    63    64     9
   57    60    63    65     9
   57    60    63    66     9
   61    60    63    64     9
   61    60    63    65     9
   61    60    63    66     9
   62    60    63    64     9
   62    60    63    65     9
   62    60    63    66     9
   60    63    66    67     9
   60    63    66    68     9
   60    63    66    69     9
   64    63    66    67     9
   64    63    66    68     9
   64    63    66    69     9
   65    63    66    67     9
   65    63    66    68     9
   65    63    66    69     9
   20    70    73    74     9
   20    70    73    75     9
   20    70    73    76     9
   71    70    73    74     9
   71    70    73    75     9
   71    70    73    76     9
   72    70    73    74     9
   72    70    73    75     9
   72    70    73    76     9
   70    73    76    77     9
   70    73    76    78     9
   70    73    76    79     9
   74    73    76    77     9
   74    73    76    78     9
   74    73    76    79     9
   75    73    76    77     9
   75    73    76    78     9
   75    73    76    79     9
   73    76    79    80     9
   73    76    79    81     9
   73    76    79    82     9
   77    76    79    80     9
   77    76    79    81     9
   77    76    79    82     9
   78    76    79    80     9
   78    76    79    81     9
   78    76    79    82     9
   76    79    82    83     9
   76    79    82    84     9
   76    79    82    85     9
   80    79    82    83     9
   80    79    82    84     9
   80    79    82    85     9
   81    79    82    83     9
   81    79    82    84     9
   81    79    82    85     9
   79    82    85    86     9
   79    82    85    87     9
   79    82    85    88     9
   83    82    85    86     9
   83    82    85    87     9
   83    82    85    88     9
   84    82    85    86     9
   84    82    85    87     9
   84    82    85    88     9
   82    85    88    89     9
   82    85    88    90     9
   82    85    88    91     9
   86    85    88    89     9
   86    85    88    90     9
   86    85    88    91     9
   87    85    88    89     9
   87    85    88    90     9
   87    85    88    91     9
   85    88    91    92     9
   85    88    91    93     9
   85    88    91    94     9
   89    88    91    92     9
   89    88    91    93     9
   89    88    91    94     9
   90    88    91    92     9
   90    88    91    93     9
   90    88    91    94     9
   88    91    94    95     9
   88    91    94    96     9
   88    91    94    97     9
   92    91    94    95     9
   92    91    94    96     9
   92    91    94    97     9
   93    91    94    95     9
   93    91    94    96     9
   93    91    94    97     9
   91    94    97    98     9
   91    94    97    99     9
   91    94    97   100     9
   95    94    97    98     9
   95    94    97    99     9
   95    94    97   100     9
   96    94    97    98     9
   96    94    97    99     9
   96    94    97   100     9
   94    97   100   101     9
   94    97   100   102     9
   94    97   100   103     9
   98    97   100   101     9
   98    97   100   102     9
   98    97   100   103     9
   99    97   100   101     9
   99    97   100   102     9
   99    97   100   103     9
   97   100   103   104     9
   97   100   103   105     9
   97   100   103   106     9
  101   100   103   104     9
  101   100   103   105     9
  101   100   103   106     9
  102   100   103   104     9
  102   100   103   105     9
  102   100   103   106     9
  100   103   106   107     9
  100   103   106   108     9
  100   103   106   109     9
  104   103   106   107     9
  104   103   106   108     9
  104   103   106   109     9
  105   103   106   107     9
  105   103   106   108     9
  105   103   106   109     9
  103   106   109   110     9
  103   106   109   111     9
  103   106   109   112     9
  107   106   109   110     9
  107   106   109   111     9
  107   106   109   112     9
  108   106   109   110     9
  108   106   109   111     9
  108   106   109   112     9
  106   109   112   113     9
  106   109   112   114     9
  106   109   112   115     9
  110   109   112   113     9
  110   109   112   114     9
  110   109   112   115     9
  111   109   112   113     9
  111   109   112   114     9
  111   109   112   115     9
  109   112   115   116     9
  109   112   115   117     9
  109   112   115   118     9
  113   112   115   116     9
  113   112   115   117     9
  113   112   115   118     9
  114   112   115   116     9
  114   112   115   117     9
  114   112   115   118     9

[ dihedrals ]
; ai	aj	ak	al	funct	q0	cq
    9     8    11    10     2
   18    17    20    19     2

#ifdef POSRES
[ position_restraints ]
    4     1     0.0             0.0            POSRES_FC_LIPID
#endif

#ifdef DIHRES
[ dihedral_restraints ]
    1    14     6     8     1   -120.0      2.5       DIHRES_FC
   38    41    43    45     1      0.0      0.0       DIHRES_FC
#endif
