;;
;; Generated by CHARMM-GUI FF-Converter
;;
;; Correspondance:
;; jul316@lehigh.edu or wonpil@lehigh.edu
;;
;; GROMACS topology file for SONTG
;;


[ moleculetype ]
; name	nrexcl
SONTG	     3

[ atoms ]
; nr	type	resnr	residu	atom	cgnr	charge	mass
     1       CTL2    175    SONTG     C1      1     0.080000    12.0110   ; qtot  0.080
     2       HAL2    175    SONTG     HA      2     0.090000     1.0080   ; qtot  0.170
     3       HAL2    175    SONTG     HB      3     0.090000     1.0080   ; qtot  0.260
     4        OSL    175    SONTG    O11      4    -0.490000    15.9994   ; qtot -0.230
     5        OBL    175    SONTG    O12      5    -0.630000    15.9994   ; qtot -0.860
     6         CL    175    SONTG    C11      6     0.900000    12.0110   ; qtot  0.040
     7       CTL2    175    SONTG    C12      7    -0.220000    12.0110   ; qtot -0.180
     8       HAL2    175    SONTG    H2P      8     0.090000     1.0080   ; qtot -0.090
     9       HAL2    175    SONTG    H2Q      9     0.090000     1.0080   ; qtot  0.000
    10       CTL1    175    SONTG     C2     10     0.170000    12.0110   ; qtot  0.170
    11       HAL1    175    SONTG     HS     11     0.090000     1.0080   ; qtot  0.260
    12        OSL    175    SONTG    O21     12    -0.490000    15.9994   ; qtot -0.230
    13         CL    175    SONTG    C21     13     0.900000    12.0110   ; qtot  0.670
    14        OBL    175    SONTG    O22     14    -0.630000    15.9994   ; qtot  0.040
    15       CTL2    175    SONTG    C22     15    -0.220000    12.0110   ; qtot -0.180
    16       HAL2    175    SONTG    H2R     16     0.090000     1.0080   ; qtot -0.090
    17       HAL2    175    SONTG    H2S     17     0.090000     1.0080   ; qtot  0.000
    18       CTL2    175    SONTG     C3     18     0.080000    12.0110   ; qtot  0.080
    19       HAL2    175    SONTG     HX     19     0.090000     1.0080   ; qtot  0.170
    20       HAL2    175    SONTG     HY     20     0.090000     1.0080   ; qtot  0.260
    21        OSL    175    SONTG    O31     21    -0.490000    15.9994   ; qtot -0.230
    22         CL    175    SONTG    C31     22     0.900000    12.0110   ; qtot  0.670
    23        OBL    175    SONTG    O32     23    -0.630000    15.9994   ; qtot  0.040
    24       CTL2    175    SONTG    C32     24    -0.220000    12.0110   ; qtot -0.180
    25       HAL2    175    SONTG    H2X     25     0.090000     1.0080   ; qtot -0.090
    26       HAL2    175    SONTG    H2Y     26     0.090000     1.0080   ; qtot  0.000
    27       CTL2    175    SONTG    C13     27    -0.180000    12.0110   ; qtot -0.180
    28       HAL2    175    SONTG    H3P     28     0.090000     1.0080   ; qtot -0.090
    29       HAL2    175    SONTG    H3Q     29     0.090000     1.0080   ; qtot  0.000
    30       CTL2    175    SONTG    C14     30    -0.180000    12.0110   ; qtot -0.180
    31       HAL2    175    SONTG    H4P     31     0.090000     1.0080   ; qtot -0.090
    32       HAL2    175    SONTG    H4Q     32     0.090000     1.0080   ; qtot  0.000
    33       CTL2    175    SONTG    C15     33    -0.180000    12.0110   ; qtot -0.180
    34       HAL2    175    SONTG    H5P     34     0.090000     1.0080   ; qtot -0.090
    35       HAL2    175    SONTG    H5Q     35     0.090000     1.0080   ; qtot  0.000
    36       CTL2    175    SONTG    C16     36    -0.180000    12.0110   ; qtot -0.180
    37       HAL2    175    SONTG    H6P     37     0.090000     1.0080   ; qtot -0.090
    38       HAL2    175    SONTG    H6Q     38     0.090000     1.0080   ; qtot  0.000
    39       CTL2    175    SONTG    C17     39    -0.180000    12.0110   ; qtot -0.180
    40       HAL2    175    SONTG    H7P     40     0.090000     1.0080   ; qtot -0.090
    41       HAL2    175    SONTG    H7Q     41     0.090000     1.0080   ; qtot  0.000
    42       CTL2    175    SONTG    C18     42    -0.180000    12.0110   ; qtot -0.180
    43       HAL2    175    SONTG    H8P     43     0.090000     1.0080   ; qtot -0.090
    44       HAL2    175    SONTG    H8Q     44     0.090000     1.0080   ; qtot  0.000
    45       CTL2    175    SONTG    C19     45    -0.180000    12.0110   ; qtot -0.180
    46       HAL2    175    SONTG    H9P     46     0.090000     1.0080   ; qtot -0.090
    47       HAL2    175    SONTG    H9Q     47     0.090000     1.0080   ; qtot  0.000
    48       CTL2    175    SONTG   C110     48    -0.180000    12.0110   ; qtot -0.180
    49       HAL2    175    SONTG   H10P     49     0.090000     1.0080   ; qtot -0.090
    50       HAL2    175    SONTG   H10Q     50     0.090000     1.0080   ; qtot  0.000
    51       CTL2    175    SONTG   C111     51    -0.180000    12.0110   ; qtot -0.180
    52       HAL2    175    SONTG   H11P     52     0.090000     1.0080   ; qtot -0.090
    53       HAL2    175    SONTG   H11Q     53     0.090000     1.0080   ; qtot  0.000
    54       CTL2    175    SONTG   C112     54    -0.180000    12.0110   ; qtot -0.180
    55       HAL2    175    SONTG   H12P     55     0.090000     1.0080   ; qtot -0.090
    56       HAL2    175    SONTG   H12Q     56     0.090000     1.0080   ; qtot  0.000
    57       CTL2    175    SONTG   C113     57    -0.180000    12.0110   ; qtot -0.180
    58       HAL2    175    SONTG   H13P     58     0.090000     1.0080   ; qtot -0.090
    59       HAL2    175    SONTG   H13Q     59     0.090000     1.0080   ; qtot  0.000
    60       CTL2    175    SONTG   C114     60    -0.180000    12.0110   ; qtot -0.180
    61       HAL2    175    SONTG   H14P     61     0.090000     1.0080   ; qtot -0.090
    62       HAL2    175    SONTG   H14Q     62     0.090000     1.0080   ; qtot  0.000
    63       CTL2    175    SONTG   C115     63    -0.180000    12.0110   ; qtot -0.180
    64       HAL2    175    SONTG   H15P     64     0.090000     1.0080   ; qtot -0.090
    65       HAL2    175    SONTG   H15Q     65     0.090000     1.0080   ; qtot  0.000
    66       CTL2    175    SONTG   C116     66    -0.180000    12.0110   ; qtot -0.180
    67       HAL2    175    SONTG   H16P     67     0.090000     1.0080   ; qtot -0.090
    68       HAL2    175    SONTG   H16Q     68     0.090000     1.0080   ; qtot  0.000
    69       CTL2    175    SONTG   C117     69    -0.180000    12.0110   ; qtot -0.180
    70       HAL2    175    SONTG   H17P     70     0.090000     1.0080   ; qtot -0.090
    71       HAL2    175    SONTG   H17Q     71     0.090000     1.0080   ; qtot  0.000
    72       CTL3    175    SONTG   C118     72    -0.270000    12.0110   ; qtot -0.270
    73       HAL3    175    SONTG   H18P     73     0.090000     1.0080   ; qtot -0.180
    74       HAL3    175    SONTG   H18Q     74     0.090000     1.0080   ; qtot -0.090
    75       HAL3    175    SONTG   H18O     75     0.090000     1.0080   ; qtot -0.000
    76       CTL2    175    SONTG    C23     76    -0.180000    12.0110   ; qtot -0.180
    77       HAL2    175    SONTG    H3R     77     0.090000     1.0080   ; qtot -0.090
    78       HAL2    175    SONTG    H3S     78     0.090000     1.0080   ; qtot -0.000
    79       CTL2    175    SONTG    C24     79    -0.180000    12.0110   ; qtot -0.180
    80       HAL2    175    SONTG    H4R     80     0.090000     1.0080   ; qtot -0.090
    81       HAL2    175    SONTG    H4S     81     0.090000     1.0080   ; qtot -0.000
    82       CTL2    175    SONTG    C25     82    -0.180000    12.0110   ; qtot -0.180
    83       HAL2    175    SONTG    H5R     83     0.090000     1.0080   ; qtot -0.090
    84       HAL2    175    SONTG    H5S     84     0.090000     1.0080   ; qtot -0.000
    85       CTL2    175    SONTG    C26     85    -0.180000    12.0110   ; qtot -0.180
    86       HAL2    175    SONTG    H6R     86     0.090000     1.0080   ; qtot -0.090
    87       HAL2    175    SONTG    H6S     87     0.090000     1.0080   ; qtot -0.000
    88       CTL2    175    SONTG    C27     88    -0.180000    12.0110   ; qtot -0.180
    89       HAL2    175    SONTG    H7R     89     0.090000     1.0080   ; qtot -0.090
    90       HAL2    175    SONTG    H7S     90     0.090000     1.0080   ; qtot -0.000
    91       CTL2    175    SONTG    C28     91    -0.180000    12.0110   ; qtot -0.180
    92       HAL2    175    SONTG    H8R     92     0.090000     1.0080   ; qtot -0.090
    93       HAL2    175    SONTG    H8S     93     0.090000     1.0080   ; qtot -0.000
    94       CEL1    175    SONTG    C29     94    -0.150000    12.0110   ; qtot -0.150
    95       HEL1    175    SONTG    H9R     95     0.150000     1.0080   ; qtot -0.000
    96       CEL1    175    SONTG   C210     96    -0.150000    12.0110   ; qtot -0.150
    97       HEL1    175    SONTG   H10R     97     0.150000     1.0080   ; qtot -0.000
    98       CTL2    175    SONTG   C211     98    -0.180000    12.0110   ; qtot -0.180
    99       HAL2    175    SONTG   H11R     99     0.090000     1.0080   ; qtot -0.090
   100       HAL2    175    SONTG   H11S    100     0.090000     1.0080   ; qtot -0.000
   101       CTL2    175    SONTG   C212    101    -0.180000    12.0110   ; qtot -0.180
   102       HAL2    175    SONTG   H12R    102     0.090000     1.0080   ; qtot -0.090
   103       HAL2    175    SONTG   H12S    103     0.090000     1.0080   ; qtot -0.000
   104       CTL2    175    SONTG   C213    104    -0.180000    12.0110   ; qtot -0.180
   105       HAL2    175    SONTG   H13R    105     0.090000     1.0080   ; qtot -0.090
   106       HAL2    175    SONTG   H13S    106     0.090000     1.0080   ; qtot -0.000
   107       CTL2    175    SONTG   C214    107    -0.180000    12.0110   ; qtot -0.180
   108       HAL2    175    SONTG   H14R    108     0.090000     1.0080   ; qtot -0.090
   109       HAL2    175    SONTG   H14S    109     0.090000     1.0080   ; qtot -0.000
   110       CTL2    175    SONTG   C215    110    -0.180000    12.0110   ; qtot -0.180
   111       HAL2    175    SONTG   H15R    111     0.090000     1.0080   ; qtot -0.090
   112       HAL2    175    SONTG   H15S    112     0.090000     1.0080   ; qtot -0.000
   113       CTL2    175    SONTG   C216    113    -0.180000    12.0110   ; qtot -0.180
   114       HAL2    175    SONTG   H16R    114     0.090000     1.0080   ; qtot -0.090
   115       HAL2    175    SONTG   H16S    115     0.090000     1.0080   ; qtot -0.000
   116       CTL2    175    SONTG   C217    116    -0.180000    12.0110   ; qtot -0.180
   117       HAL2    175    SONTG   H17R    117     0.090000     1.0080   ; qtot -0.090
   118       HAL2    175    SONTG   H17S    118     0.090000     1.0080   ; qtot -0.000
   119       CTL3    175    SONTG   C218    119    -0.270000    12.0110   ; qtot -0.270
   120       HAL3    175    SONTG   H18R    120     0.090000     1.0080   ; qtot -0.180
   121       HAL3    175    SONTG   H18S    121     0.090000     1.0080   ; qtot -0.090
   122       HAL3    175    SONTG   H18T    122     0.090000     1.0080   ; qtot -0.000
   123       CTL2    175    SONTG    C33    123    -0.180000    12.0110   ; qtot -0.180
   124       HAL2    175    SONTG    H3X    124     0.090000     1.0080   ; qtot -0.090
   125       HAL2    175    SONTG    H3Y    125     0.090000     1.0080   ; qtot -0.000
   126       CTL2    175    SONTG    C34    126    -0.180000    12.0110   ; qtot -0.180
   127       HAL2    175    SONTG    H4X    127     0.090000     1.0080   ; qtot -0.090
   128       HAL2    175    SONTG    H4Y    128     0.090000     1.0080   ; qtot -0.000
   129       CTL2    175    SONTG    C35    129    -0.180000    12.0110   ; qtot -0.180
   130       HAL2    175    SONTG    H5X    130     0.090000     1.0080   ; qtot -0.090
   131       HAL2    175    SONTG    H5Y    131     0.090000     1.0080   ; qtot -0.000
   132       CTL2    175    SONTG    C36    132    -0.180000    12.0110   ; qtot -0.180
   133       HAL2    175    SONTG    H6X    133     0.090000     1.0080   ; qtot -0.090
   134       HAL2    175    SONTG    H6Y    134     0.090000     1.0080   ; qtot -0.000
   135       CTL2    175    SONTG    C37    135    -0.180000    12.0110   ; qtot -0.180
   136       HAL2    175    SONTG    H7X    136     0.090000     1.0080   ; qtot -0.090
   137       HAL2    175    SONTG    H7Y    137     0.090000     1.0080   ; qtot -0.000
   138       CTL2    175    SONTG    C38    138    -0.180000    12.0110   ; qtot -0.180
   139       HAL2    175    SONTG    H8X    139     0.090000     1.0080   ; qtot -0.090
   140       HAL2    175    SONTG    H8Y    140     0.090000     1.0080   ; qtot -0.000
   141       CEL1    175    SONTG    C39    141    -0.150000    12.0110   ; qtot -0.150
   142       HEL1    175    SONTG    H9X    142     0.150000     1.0080   ; qtot -0.000
   143       CEL1    175    SONTG   C310    143    -0.150000    12.0110   ; qtot -0.150
   144       HEL1    175    SONTG   H10X    144     0.150000     1.0080   ; qtot -0.000
   145       CTL2    175    SONTG   C311    145    -0.180000    12.0110   ; qtot -0.180
   146       HAL2    175    SONTG   H11X    146     0.090000     1.0080   ; qtot -0.090
   147       HAL2    175    SONTG   H11Y    147     0.090000     1.0080   ; qtot -0.000
   148       CEL1    175    SONTG   C312    148    -0.150000    12.0110   ; qtot -0.150
   149       HEL1    175    SONTG   H12X    149     0.150000     1.0080   ; qtot -0.000
   150       CEL1    175    SONTG   C313    150    -0.150000    12.0110   ; qtot -0.150
   151       HEL1    175    SONTG   H13X    151     0.150000     1.0080   ; qtot -0.000
   152       CTL2    175    SONTG   C314    152    -0.180000    12.0110   ; qtot -0.180
   153       HAL2    175    SONTG   H14X    153     0.090000     1.0080   ; qtot -0.090
   154       HAL2    175    SONTG   H14Y    154     0.090000     1.0080   ; qtot -0.000
   155       CEL1    175    SONTG   C315    155    -0.150000    12.0110   ; qtot -0.150
   156       HEL1    175    SONTG   H15X    156     0.150000     1.0080   ; qtot -0.000
   157       CEL1    175    SONTG   C316    157    -0.150000    12.0110   ; qtot -0.150
   158       HEL1    175    SONTG   H16X    158     0.150000     1.0080   ; qtot -0.000
   159       CTL2    175    SONTG   C317    159    -0.180000    12.0110   ; qtot -0.180
   160       HAL2    175    SONTG   H17X    160     0.090000     1.0080   ; qtot -0.090
   161       HAL2    175    SONTG   H17Y    161     0.090000     1.0080   ; qtot -0.000
   162       CTL3    175    SONTG   C318    162    -0.270000    12.0110   ; qtot -0.270
   163       HAL3    175    SONTG   H18X    163     0.090000     1.0080   ; qtot -0.180
   164       HAL3    175    SONTG   H18Y    164     0.090000     1.0080   ; qtot -0.090
   165       HAL3    175    SONTG   H18Z    165     0.090000     1.0080   ; qtot -0.000

[ bonds ]
; ai	aj	funct	b0	Kb
    1     2     1
    1     3     1
    1     4     1
    1    10     1
    4     6     1
    6     5     1
    6     7     1
    7     8     1
    7     9     1
    7    27     1
   10    11     1
   10    12     1
   10    18     1
   12    13     1
   13    14     1
   13    15     1
   15    16     1
   15    17     1
   15    76     1
   18    19     1
   18    20     1
   18    21     1
   21    22     1
   22    23     1
   22    24     1
   24    25     1
   24    26     1
   24   123     1
   27    28     1
   27    29     1
   27    30     1
   30    31     1
   30    32     1
   30    33     1
   33    34     1
   33    35     1
   33    36     1
   36    37     1
   36    38     1
   36    39     1
   39    40     1
   39    41     1
   39    42     1
   42    43     1
   42    44     1
   42    45     1
   45    46     1
   45    47     1
   45    48     1
   48    49     1
   48    50     1
   48    51     1
   51    52     1
   51    53     1
   51    54     1
   54    55     1
   54    56     1
   54    57     1
   57    58     1
   57    59     1
   57    60     1
   60    61     1
   60    62     1
   60    63     1
   63    64     1
   63    65     1
   63    66     1
   66    67     1
   66    68     1
   66    69     1
   69    70     1
   69    71     1
   69    72     1
   72    73     1
   72    74     1
   72    75     1
   76    77     1
   76    78     1
   76    79     1
   79    80     1
   79    81     1
   79    82     1
   82    83     1
   82    84     1
   82    85     1
   85    86     1
   85    87     1
   85    88     1
   88    89     1
   88    90     1
   88    91     1
   91    92     1
   91    93     1
   91    94     1
   94    95     1
   94    96     1
   96    97     1
   96    98     1
   98    99     1
   98   100     1
   98   101     1
  101   102     1
  101   103     1
  101   104     1
  104   105     1
  104   106     1
  104   107     1
  107   108     1
  107   109     1
  107   110     1
  110   111     1
  110   112     1
  110   113     1
  113   114     1
  113   115     1
  113   116     1
  116   117     1
  116   118     1
  116   119     1
  119   120     1
  119   121     1
  119   122     1
  123   124     1
  123   125     1
  123   126     1
  126   127     1
  126   128     1
  126   129     1
  129   130     1
  129   131     1
  129   132     1
  132   133     1
  132   134     1
  132   135     1
  135   136     1
  135   137     1
  135   138     1
  138   139     1
  138   140     1
  138   141     1
  141   142     1
  141   143     1
  143   144     1
  143   145     1
  145   146     1
  145   147     1
  145   148     1
  148   149     1
  148   150     1
  150   151     1
  150   152     1
  152   153     1
  152   154     1
  152   155     1
  155   156     1
  155   157     1
  157   158     1
  157   159     1
  159   160     1
  159   161     1
  159   162     1
  162   163     1
  162   164     1
  162   165     1

[ pairs ]
; ai	aj	funct	c6	c12 or
; ai	aj	funct	fudgeQQ	q1	q2	c6	c12
    1     5     1
    1     7     1
    1    13     1
    1    19     1
    1    20     1
    1    21     1
    2     6     1
    2    11     1
    2    12     1
    2    18     1
    3     6     1
    3    11     1
    3    12     1
    3    18     1
    4     8     1
    4     9     1
    4    11     1
    4    12     1
    4    18     1
    4    27     1
    5     8     1
    5     9     1
    5    27     1
    6    10     1
    6    28     1
    6    29     1
    6    30     1
    7    31     1
    7    32     1
    7    33     1
    8    28     1
    8    29     1
    8    30     1
    9    28     1
    9    29     1
    9    30     1
   10    14     1
   10    15     1
   10    22     1
   11    13     1
   11    19     1
   11    20     1
   11    21     1
   12    16     1
   12    17     1
   12    19     1
   12    20     1
   12    21     1
   12    76     1
   13    18     1
   13    77     1
   13    78     1
   13    79     1
   14    16     1
   14    17     1
   14    76     1
   15    80     1
   15    81     1
   15    82     1
   16    77     1
   16    78     1
   16    79     1
   17    77     1
   17    78     1
   17    79     1
   18    23     1
   18    24     1
   19    22     1
   20    22     1
   21    25     1
   21    26     1
   21   123     1
   22   124     1
   22   125     1
   22   126     1
   23    25     1
   23    26     1
   23   123     1
   24   127     1
   24   128     1
   24   129     1
   25   124     1
   25   125     1
   25   126     1
   26   124     1
   26   125     1
   26   126     1
   27    34     1
   27    35     1
   27    36     1
   28    31     1
   28    32     1
   28    33     1
   29    31     1
   29    32     1
   29    33     1
   30    37     1
   30    38     1
   30    39     1
   31    34     1
   31    35     1
   31    36     1
   32    34     1
   32    35     1
   32    36     1
   33    40     1
   33    41     1
   33    42     1
   34    37     1
   34    38     1
   34    39     1
   35    37     1
   35    38     1
   35    39     1
   36    43     1
   36    44     1
   36    45     1
   37    40     1
   37    41     1
   37    42     1
   38    40     1
   38    41     1
   38    42     1
   39    46     1
   39    47     1
   39    48     1
   40    43     1
   40    44     1
   40    45     1
   41    43     1
   41    44     1
   41    45     1
   42    49     1
   42    50     1
   42    51     1
   43    46     1
   43    47     1
   43    48     1
   44    46     1
   44    47     1
   44    48     1
   45    52     1
   45    53     1
   45    54     1
   46    49     1
   46    50     1
   46    51     1
   47    49     1
   47    50     1
   47    51     1
   48    55     1
   48    56     1
   48    57     1
   49    52     1
   49    53     1
   49    54     1
   50    52     1
   50    53     1
   50    54     1
   51    58     1
   51    59     1
   51    60     1
   52    55     1
   52    56     1
   52    57     1
   53    55     1
   53    56     1
   53    57     1
   54    61     1
   54    62     1
   54    63     1
   55    58     1
   55    59     1
   55    60     1
   56    58     1
   56    59     1
   56    60     1
   57    64     1
   57    65     1
   57    66     1
   58    61     1
   58    62     1
   58    63     1
   59    61     1
   59    62     1
   59    63     1
   60    67     1
   60    68     1
   60    69     1
   61    64     1
   61    65     1
   61    66     1
   62    64     1
   62    65     1
   62    66     1
   63    70     1
   63    71     1
   63    72     1
   64    67     1
   64    68     1
   64    69     1
   65    67     1
   65    68     1
   65    69     1
   66    73     1
   66    74     1
   66    75     1
   67    70     1
   67    71     1
   67    72     1
   68    70     1
   68    71     1
   68    72     1
   70    73     1
   70    74     1
   70    75     1
   71    73     1
   71    74     1
   71    75     1
   76    83     1
   76    84     1
   76    85     1
   77    80     1
   77    81     1
   77    82     1
   78    80     1
   78    81     1
   78    82     1
   79    86     1
   79    87     1
   79    88     1
   80    83     1
   80    84     1
   80    85     1
   81    83     1
   81    84     1
   81    85     1
   82    89     1
   82    90     1
   82    91     1
   83    86     1
   83    87     1
   83    88     1
   84    86     1
   84    87     1
   84    88     1
   85    92     1
   85    93     1
   85    94     1
   86    89     1
   86    90     1
   86    91     1
   87    89     1
   87    90     1
   87    91     1
   88    95     1
   88    96     1
   89    92     1
   89    93     1
   89    94     1
   90    92     1
   90    93     1
   90    94     1
   91    97     1
   91    98     1
   92    95     1
   92    96     1
   93    95     1
   93    96     1
   94    99     1
   94   100     1
   94   101     1
   95    97     1
   95    98     1
   96   102     1
   96   103     1
   96   104     1
   97    99     1
   97   100     1
   97   101     1
   98   105     1
   98   106     1
   98   107     1
   99   102     1
   99   103     1
   99   104     1
  100   102     1
  100   103     1
  100   104     1
  101   108     1
  101   109     1
  101   110     1
  102   105     1
  102   106     1
  102   107     1
  103   105     1
  103   106     1
  103   107     1
  104   111     1
  104   112     1
  104   113     1
  105   108     1
  105   109     1
  105   110     1
  106   108     1
  106   109     1
  106   110     1
  107   114     1
  107   115     1
  107   116     1
  108   111     1
  108   112     1
  108   113     1
  109   111     1
  109   112     1
  109   113     1
  110   117     1
  110   118     1
  110   119     1
  111   114     1
  111   115     1
  111   116     1
  112   114     1
  112   115     1
  112   116     1
  113   120     1
  113   121     1
  113   122     1
  114   117     1
  114   118     1
  114   119     1
  115   117     1
  115   118     1
  115   119     1
  117   120     1
  117   121     1
  117   122     1
  118   120     1
  118   121     1
  118   122     1
  123   130     1
  123   131     1
  123   132     1
  124   127     1
  124   128     1
  124   129     1
  125   127     1
  125   128     1
  125   129     1
  126   133     1
  126   134     1
  126   135     1
  127   130     1
  127   131     1
  127   132     1
  128   130     1
  128   131     1
  128   132     1
  129   136     1
  129   137     1
  129   138     1
  130   133     1
  130   134     1
  130   135     1
  131   133     1
  131   134     1
  131   135     1
  132   139     1
  132   140     1
  132   141     1
  133   136     1
  133   137     1
  133   138     1
  134   136     1
  134   137     1
  134   138     1
  135   142     1
  135   143     1
  136   139     1
  136   140     1
  136   141     1
  137   139     1
  137   140     1
  137   141     1
  138   144     1
  138   145     1
  139   142     1
  139   143     1
  140   142     1
  140   143     1
  141   146     1
  141   147     1
  141   148     1
  142   144     1
  142   145     1
  143   149     1
  143   150     1
  144   146     1
  144   147     1
  144   148     1
  145   151     1
  145   152     1
  146   149     1
  146   150     1
  147   149     1
  147   150     1
  148   153     1
  148   154     1
  148   155     1
  149   151     1
  149   152     1
  150   156     1
  150   157     1
  151   153     1
  151   154     1
  151   155     1
  152   158     1
  152   159     1
  153   156     1
  153   157     1
  154   156     1
  154   157     1
  155   160     1
  155   161     1
  155   162     1
  156   158     1
  156   159     1
  157   163     1
  157   164     1
  157   165     1
  158   160     1
  158   161     1
  158   162     1
  160   163     1
  160   164     1
  160   165     1
  161   163     1
  161   164     1
  161   165     1

[ angles ] 
; ai	aj	ak	funct	th0	cth	S0	Kub
    2     1     3     5
    2     1     4     5
    2     1    10     5
    3     1     4     5
    3     1    10     5
    4     1    10     5
    1     4     6     5
    4     6     5     5
    4     6     7     5
    5     6     7     5
    6     7     8     5
    6     7     9     5
    6     7    27     5
    8     7     9     5
    8     7    27     5
    9     7    27     5
    1    10    11     5
    1    10    12     5
    1    10    18     5
   11    10    12     5
   11    10    18     5
   12    10    18     5
   10    12    13     5
   12    13    14     5
   12    13    15     5
   14    13    15     5
   13    15    16     5
   13    15    17     5
   13    15    76     5
   16    15    17     5
   16    15    76     5
   17    15    76     5
   10    18    19     5
   10    18    20     5
   10    18    21     5
   19    18    20     5
   19    18    21     5
   20    18    21     5
   18    21    22     5
   21    22    23     5
   21    22    24     5
   23    22    24     5
   22    24    25     5
   22    24    26     5
   22    24   123     5
   25    24    26     5
   25    24   123     5
   26    24   123     5
    7    27    28     5
    7    27    29     5
    7    27    30     5
   28    27    29     5
   28    27    30     5
   29    27    30     5
   27    30    31     5
   27    30    32     5
   27    30    33     5
   31    30    32     5
   31    30    33     5
   32    30    33     5
   30    33    34     5
   30    33    35     5
   30    33    36     5
   34    33    35     5
   34    33    36     5
   35    33    36     5
   33    36    37     5
   33    36    38     5
   33    36    39     5
   37    36    38     5
   37    36    39     5
   38    36    39     5
   36    39    40     5
   36    39    41     5
   36    39    42     5
   40    39    41     5
   40    39    42     5
   41    39    42     5
   39    42    43     5
   39    42    44     5
   39    42    45     5
   43    42    44     5
   43    42    45     5
   44    42    45     5
   42    45    46     5
   42    45    47     5
   42    45    48     5
   46    45    47     5
   46    45    48     5
   47    45    48     5
   45    48    49     5
   45    48    50     5
   45    48    51     5
   49    48    50     5
   49    48    51     5
   50    48    51     5
   48    51    52     5
   48    51    53     5
   48    51    54     5
   52    51    53     5
   52    51    54     5
   53    51    54     5
   51    54    55     5
   51    54    56     5
   51    54    57     5
   55    54    56     5
   55    54    57     5
   56    54    57     5
   54    57    58     5
   54    57    59     5
   54    57    60     5
   58    57    59     5
   58    57    60     5
   59    57    60     5
   57    60    61     5
   57    60    62     5
   57    60    63     5
   61    60    62     5
   61    60    63     5
   62    60    63     5
   60    63    64     5
   60    63    65     5
   60    63    66     5
   64    63    65     5
   64    63    66     5
   65    63    66     5
   63    66    67     5
   63    66    68     5
   63    66    69     5
   67    66    68     5
   67    66    69     5
   68    66    69     5
   66    69    70     5
   66    69    71     5
   66    69    72     5
   70    69    71     5
   70    69    72     5
   71    69    72     5
   69    72    73     5
   69    72    74     5
   69    72    75     5
   73    72    74     5
   73    72    75     5
   74    72    75     5
   15    76    77     5
   15    76    78     5
   15    76    79     5
   77    76    78     5
   77    76    79     5
   78    76    79     5
   76    79    80     5
   76    79    81     5
   76    79    82     5
   80    79    81     5
   80    79    82     5
   81    79    82     5
   79    82    83     5
   79    82    84     5
   79    82    85     5
   83    82    84     5
   83    82    85     5
   84    82    85     5
   82    85    86     5
   82    85    87     5
   82    85    88     5
   86    85    87     5
   86    85    88     5
   87    85    88     5
   85    88    89     5
   85    88    90     5
   85    88    91     5
   89    88    90     5
   89    88    91     5
   90    88    91     5
   88    91    92     5
   88    91    93     5
   88    91    94     5
   92    91    93     5
   92    91    94     5
   93    91    94     5
   91    94    95     5
   91    94    96     5
   95    94    96     5
   94    96    97     5
   94    96    98     5
   97    96    98     5
   96    98    99     5
   96    98   100     5
   96    98   101     5
   99    98   100     5
   99    98   101     5
  100    98   101     5
   98   101   102     5
   98   101   103     5
   98   101   104     5
  102   101   103     5
  102   101   104     5
  103   101   104     5
  101   104   105     5
  101   104   106     5
  101   104   107     5
  105   104   106     5
  105   104   107     5
  106   104   107     5
  104   107   108     5
  104   107   109     5
  104   107   110     5
  108   107   109     5
  108   107   110     5
  109   107   110     5
  107   110   111     5
  107   110   112     5
  107   110   113     5
  111   110   112     5
  111   110   113     5
  112   110   113     5
  110   113   114     5
  110   113   115     5
  110   113   116     5
  114   113   115     5
  114   113   116     5
  115   113   116     5
  113   116   117     5
  113   116   118     5
  113   116   119     5
  117   116   118     5
  117   116   119     5
  118   116   119     5
  116   119   120     5
  116   119   121     5
  116   119   122     5
  120   119   121     5
  120   119   122     5
  121   119   122     5
   24   123   124     5
   24   123   125     5
   24   123   126     5
  124   123   125     5
  124   123   126     5
  125   123   126     5
  123   126   127     5
  123   126   128     5
  123   126   129     5
  127   126   128     5
  127   126   129     5
  128   126   129     5
  126   129   130     5
  126   129   131     5
  126   129   132     5
  130   129   131     5
  130   129   132     5
  131   129   132     5
  129   132   133     5
  129   132   134     5
  129   132   135     5
  133   132   134     5
  133   132   135     5
  134   132   135     5
  132   135   136     5
  132   135   137     5
  132   135   138     5
  136   135   137     5
  136   135   138     5
  137   135   138     5
  135   138   139     5
  135   138   140     5
  135   138   141     5
  139   138   140     5
  139   138   141     5
  140   138   141     5
  138   141   142     5
  138   141   143     5
  142   141   143     5
  141   143   144     5
  141   143   145     5
  144   143   145     5
  143   145   146     5
  143   145   147     5
  143   145   148     5
  146   145   147     5
  146   145   148     5
  147   145   148     5
  145   148   149     5
  145   148   150     5
  149   148   150     5
  148   150   151     5
  148   150   152     5
  151   150   152     5
  150   152   153     5
  150   152   154     5
  150   152   155     5
  153   152   154     5
  153   152   155     5
  154   152   155     5
  152   155   156     5
  152   155   157     5
  156   155   157     5
  155   157   158     5
  155   157   159     5
  158   157   159     5
  157   159   160     5
  157   159   161     5
  157   159   162     5
  160   159   161     5
  160   159   162     5
  161   159   162     5
  159   162   163     5
  159   162   164     5
  159   162   165     5
  163   162   164     5
  163   162   165     5
  164   162   165     5

[ dihedrals ]
; ai	aj	ak	al	funct	phi0	cp	mult
    2     1     4     6     9
    3     1     4     6     9
    2     1    10    11     9
    2     1    10    12     9
    2     1    10    18     9
    3     1    10    11     9
    3     1    10    12     9
    3     1    10    18     9
    4     1    10    11     9
    4     1    10    12     9
    4     1    10    18     9
    6     4     1    10     9
    1     4     6     5     9
    1     4     6     7     9
    4     6     7     8     9
    4     6     7     9     9
    4     6     7    27     9
    5     6     7     8     9
    5     6     7     9     9
    5     6     7    27     9
    6     7    27    28     9
    6     7    27    29     9
    6     7    27    30     9
    8     7    27    28     9
    8     7    27    29     9
    8     7    27    30     9
    9     7    27    28     9
    9     7    27    29     9
    9     7    27    30     9
    1    10    12    13     9
   11    10    12    13     9
    1    10    18    19     9
    1    10    18    20     9
    1    10    18    21     9
   11    10    18    19     9
   11    10    18    20     9
   11    10    18    21     9
   12    10    18    19     9
   12    10    18    20     9
   12    10    18    21     9
   13    12    10    18     9
   10    12    13    14     9
   10    12    13    15     9
   12    13    15    16     9
   12    13    15    17     9
   12    13    15    76     9
   14    13    15    16     9
   14    13    15    17     9
   14    13    15    76     9
   13    15    76    77     9
   13    15    76    78     9
   13    15    76    79     9
   16    15    76    77     9
   16    15    76    78     9
   16    15    76    79     9
   17    15    76    77     9
   17    15    76    78     9
   17    15    76    79     9
   10    18    21    22     9
   19    18    21    22     9
   20    18    21    22     9
   18    21    22    23     9
   18    21    22    24     9
   21    22    24    25     9
   21    22    24    26     9
   21    22    24   123     9
   23    22    24    25     9
   23    22    24    26     9
   23    22    24   123     9
   22    24   123   124     9
   22    24   123   125     9
   22    24   123   126     9
   25    24   123   124     9
   25    24   123   125     9
   25    24   123   126     9
   26    24   123   124     9
   26    24   123   125     9
   26    24   123   126     9
    7    27    30    31     9
    7    27    30    32     9
    7    27    30    33     9
   28    27    30    31     9
   28    27    30    32     9
   28    27    30    33     9
   29    27    30    31     9
   29    27    30    32     9
   29    27    30    33     9
   27    30    33    34     9
   27    30    33    35     9
   27    30    33    36     9
   31    30    33    34     9
   31    30    33    35     9
   31    30    33    36     9
   32    30    33    34     9
   32    30    33    35     9
   32    30    33    36     9
   30    33    36    37     9
   30    33    36    38     9
   30    33    36    39     9
   34    33    36    37     9
   34    33    36    38     9
   34    33    36    39     9
   35    33    36    37     9
   35    33    36    38     9
   35    33    36    39     9
   33    36    39    40     9
   33    36    39    41     9
   33    36    39    42     9
   37    36    39    40     9
   37    36    39    41     9
   37    36    39    42     9
   38    36    39    40     9
   38    36    39    41     9
   38    36    39    42     9
   36    39    42    43     9
   36    39    42    44     9
   36    39    42    45     9
   40    39    42    43     9
   40    39    42    44     9
   40    39    42    45     9
   41    39    42    43     9
   41    39    42    44     9
   41    39    42    45     9
   39    42    45    46     9
   39    42    45    47     9
   39    42    45    48     9
   43    42    45    46     9
   43    42    45    47     9
   43    42    45    48     9
   44    42    45    46     9
   44    42    45    47     9
   44    42    45    48     9
   42    45    48    49     9
   42    45    48    50     9
   42    45    48    51     9
   46    45    48    49     9
   46    45    48    50     9
   46    45    48    51     9
   47    45    48    49     9
   47    45    48    50     9
   47    45    48    51     9
   45    48    51    52     9
   45    48    51    53     9
   45    48    51    54     9
   49    48    51    52     9
   49    48    51    53     9
   49    48    51    54     9
   50    48    51    52     9
   50    48    51    53     9
   50    48    51    54     9
   48    51    54    55     9
   48    51    54    56     9
   48    51    54    57     9
   52    51    54    55     9
   52    51    54    56     9
   52    51    54    57     9
   53    51    54    55     9
   53    51    54    56     9
   53    51    54    57     9
   51    54    57    58     9
   51    54    57    59     9
   51    54    57    60     9
   55    54    57    58     9
   55    54    57    59     9
   55    54    57    60     9
   56    54    57    58     9
   56    54    57    59     9
   56    54    57    60     9
   54    57    60    61     9
   54    57    60    62     9
   54    57    60    63     9
   58    57    60    61     9
   58    57    60    62     9
   58    57    60    63     9
   59    57    60    61     9
   59    57    60    62     9
   59    57    60    63     9
   57    60    63    64     9
   57    60    63    65     9
   57    60    63    66     9
   61    60    63    64     9
   61    60    63    65     9
   61    60    63    66     9
   62    60    63    64     9
   62    60    63    65     9
   62    60    63    66     9
   60    63    66    67     9
   60    63    66    68     9
   60    63    66    69     9
   64    63    66    67     9
   64    63    66    68     9
   64    63    66    69     9
   65    63    66    67     9
   65    63    66    68     9
   65    63    66    69     9
   63    66    69    70     9
   63    66    69    71     9
   63    66    69    72     9
   67    66    69    70     9
   67    66    69    71     9
   67    66    69    72     9
   68    66    69    70     9
   68    66    69    71     9
   68    66    69    72     9
   66    69    72    73     9
   66    69    72    74     9
   66    69    72    75     9
   70    69    72    73     9
   70    69    72    74     9
   70    69    72    75     9
   71    69    72    73     9
   71    69    72    74     9
   71    69    72    75     9
   15    76    79    80     9
   15    76    79    81     9
   15    76    79    82     9
   77    76    79    80     9
   77    76    79    81     9
   77    76    79    82     9
   78    76    79    80     9
   78    76    79    81     9
   78    76    79    82     9
   76    79    82    83     9
   76    79    82    84     9
   76    79    82    85     9
   80    79    82    83     9
   80    79    82    84     9
   80    79    82    85     9
   81    79    82    83     9
   81    79    82    84     9
   81    79    82    85     9
   79    82    85    86     9
   79    82    85    87     9
   79    82    85    88     9
   83    82    85    86     9
   83    82    85    87     9
   83    82    85    88     9
   84    82    85    86     9
   84    82    85    87     9
   84    82    85    88     9
   82    85    88    89     9
   82    85    88    90     9
   82    85    88    91     9
   86    85    88    89     9
   86    85    88    90     9
   86    85    88    91     9
   87    85    88    89     9
   87    85    88    90     9
   87    85    88    91     9
   85    88    91    92     9
   85    88    91    93     9
   85    88    91    94     9
   89    88    91    92     9
   89    88    91    93     9
   89    88    91    94     9
   90    88    91    92     9
   90    88    91    93     9
   90    88    91    94     9
   88    91    94    95     9
   88    91    94    96     9
   92    91    94    95     9
   92    91    94    96     9
   93    91    94    95     9
   93    91    94    96     9
   91    94    96    97     9
   91    94    96    98     9
   95    94    96    97     9
   95    94    96    98     9
   94    96    98    99     9
   94    96    98   100     9
   94    96    98   101     9
   97    96    98    99     9
   97    96    98   100     9
   97    96    98   101     9
   96    98   101   102     9
   96    98   101   103     9
   96    98   101   104     9
   99    98   101   102     9
   99    98   101   103     9
   99    98   101   104     9
  100    98   101   102     9
  100    98   101   103     9
  100    98   101   104     9
   98   101   104   105     9
   98   101   104   106     9
   98   101   104   107     9
  102   101   104   105     9
  102   101   104   106     9
  102   101   104   107     9
  103   101   104   105     9
  103   101   104   106     9
  103   101   104   107     9
  101   104   107   108     9
  101   104   107   109     9
  101   104   107   110     9
  105   104   107   108     9
  105   104   107   109     9
  105   104   107   110     9
  106   104   107   108     9
  106   104   107   109     9
  106   104   107   110     9
  104   107   110   111     9
  104   107   110   112     9
  104   107   110   113     9
  108   107   110   111     9
  108   107   110   112     9
  108   107   110   113     9
  109   107   110   111     9
  109   107   110   112     9
  109   107   110   113     9
  107   110   113   114     9
  107   110   113   115     9
  107   110   113   116     9
  111   110   113   114     9
  111   110   113   115     9
  111   110   113   116     9
  112   110   113   114     9
  112   110   113   115     9
  112   110   113   116     9
  110   113   116   117     9
  110   113   116   118     9
  110   113   116   119     9
  114   113   116   117     9
  114   113   116   118     9
  114   113   116   119     9
  115   113   116   117     9
  115   113   116   118     9
  115   113   116   119     9
  113   116   119   120     9
  113   116   119   121     9
  113   116   119   122     9
  117   116   119   120     9
  117   116   119   121     9
  117   116   119   122     9
  118   116   119   120     9
  118   116   119   121     9
  118   116   119   122     9
   24   123   126   127     9
   24   123   126   128     9
   24   123   126   129     9
  124   123   126   127     9
  124   123   126   128     9
  124   123   126   129     9
  125   123   126   127     9
  125   123   126   128     9
  125   123   126   129     9
  123   126   129   130     9
  123   126   129   131     9
  123   126   129   132     9
  127   126   129   130     9
  127   126   129   131     9
  127   126   129   132     9
  128   126   129   130     9
  128   126   129   131     9
  128   126   129   132     9
  126   129   132   133     9
  126   129   132   134     9
  126   129   132   135     9
  130   129   132   133     9
  130   129   132   134     9
  130   129   132   135     9
  131   129   132   133     9
  131   129   132   134     9
  131   129   132   135     9
  129   132   135   136     9
  129   132   135   137     9
  129   132   135   138     9
  133   132   135   136     9
  133   132   135   137     9
  133   132   135   138     9
  134   132   135   136     9
  134   132   135   137     9
  134   132   135   138     9
  132   135   138   139     9
  132   135   138   140     9
  132   135   138   141     9
  136   135   138   139     9
  136   135   138   140     9
  136   135   138   141     9
  137   135   138   139     9
  137   135   138   140     9
  137   135   138   141     9
  135   138   141   142     9
  135   138   141   143     9
  139   138   141   142     9
  139   138   141   143     9
  140   138   141   142     9
  140   138   141   143     9
  138   141   143   144     9
  138   141   143   145     9
  142   141   143   144     9
  142   141   143   145     9
  141   143   145   146     9
  141   143   145   147     9
  141   143   145   148     9
  144   143   145   146     9
  144   143   145   147     9
  144   143   145   148     9
  143   145   148   149     9
  143   145   148   150     9
  146   145   148   149     9
  146   145   148   150     9
  147   145   148   149     9
  147   145   148   150     9
  145   148   150   151     9
  145   148   150   152     9
  149   148   150   151     9
  149   148   150   152     9
  148   150   152   153     9
  148   150   152   154     9
  148   150   152   155     9
  151   150   152   153     9
  151   150   152   154     9
  151   150   152   155     9
  150   152   155   156     9
  150   152   155   157     9
  153   152   155   156     9
  153   152   155   157     9
  154   152   155   156     9
  154   152   155   157     9
  152   155   157   158     9
  152   155   157   159     9
  156   155   157   158     9
  156   155   157   159     9
  155   157   159   160     9
  155   157   159   161     9
  155   157   159   162     9
  158   157   159   160     9
  158   157   159   161     9
  158   157   159   162     9
  157   159   162   163     9
  157   159   162   164     9
  157   159   162   165     9
  160   159   162   163     9
  160   159   162   164     9
  160   159   162   165     9
  161   159   162   163     9
  161   159   162   164     9
  161   159   162   165     9

[ dihedrals ]
; ai	aj	ak	al	funct	q0	cq
    6     4     7     5     2
   13    12    15    14     2
   22    21    24    23     2

#ifdef POSRES
[ position_restraints ]
   10     1     0.0             0.0            POSRES_FC_LIPID
#endif

#ifdef DIHRES
[ dihedral_restraints ]
    1    18    10    12     1   -120.0      2.5       DIHRES_FC
   91    94    96    98     1      0.0      0.0       DIHRES_FC
  138   141   143   145     1      0.0      0.0       DIHRES_FC
  145   148   150   152     1      0.0      0.0       DIHRES_FC
  152   155   157   159     1      0.0      0.0       DIHRES_FC
#endif
